LAMMPS data file via write_data, version 8 Apr 2021, timestep = 11390002

6208 atoms
40 atom types
6144 bonds
1 bond types

548.8454457994151 651.1545542005849 xlo xhi
548.8454457994151 651.1545542005849 ylo yhi
548.8454457994151 1265.009204607604 zlo zhi

Masses

1 131.199997
2 57.0499992
3 128.199997
4 101.099998
5 156.199997
6 71.08000180000001
7 115.099998
8 129.100006
9 163.199997
10 99.0699997
11 113.199997
12 128.100006
13 186.199997
14 147.199997
15 87.08000180000001
16 137.100006
17 114.099998
18 97.1200027
19 103.099998
20 113.199997
21 131.199997
22 57.0499992
23 128.199997
24 101.099998
25 156.199997
26 71.08000180000001
27 115.099998
28 129.100006
29 163.199997
30 99.0699997
31 113.199997
32 128.100006
33 186.199997
34 147.199997
35 87.08000180000001
36 137.100006
37 114.099998
38 97.1200027
39 103.099998
40 113.199997

Bond Coeffs # harmonic

1 9.6 3.81

Atoms # full

13614 141 1 0 592.9509953610418 557.1625540670852 690.8425931644525 -1 2 0
13616 141 17 0 592.3533965825754 550.7949029014658 688.3249790399182 -1 2 0
13620 141 10 0 597.1154386572772 554.3590729174998 678.8287740441814 -1 2 0
13645 141 1 0 612.1405534459072 550.9739254010993 682.088002231888 -1 2 0
13617 141 2 0 595.503188644878 548.9423638332426 686.6138828582109 -1 2 0
13619 141 12 0 596.340591434201 553.6536606304294 682.52680373459 -1 2 0
13618 141 13 0 597.620989011524 551.6965072534475 685.1010454348964 -1 2 0
13621 141 18 0 597.4219854203716 551.5287236138374 676.2771750471418 -1 2 0
13644 141 13 0 611.7670829525213 549.5341520175526 685.4325120628616 -1 2 0
13646 141 2 0 611.4172571278106 551.4445082744273 678.5387758678772 -1 2 0
13583 141 17 0 566.0884288503574 589.9940025358944 690.7826856965397 -1 2 0
13582 141 20 0 562.8829463077367 591.165408805134 689.9076755094243 -1 2 0
13581 141 1 0 563.180379703268 593.5468610464659 686.6453672494404 -1 2 0
16861 174 15 0 571.7840581323898 575.1191540283548 687.2577019011792 0 2 0
16860 174 2 0 575.3228435717941 575.4346759423607 686.4031737121236 0 2 0
16862 174 1 0 572.7037509633166 577.4525303457917 690.3500204692226 0 2 0
16857 174 2 0 578.1611693412325 584.0327577795241 686.2547736850036 0 2 0
16856 174 12 0 578.9402535546875 586.3991782969215 688.8327592115565 0 2 0
16859 174 17 0 576.828485164452 577.4759734681027 683.6791220757746 0 2 0
16858 174 12 0 576.1386807455148 581.1424613810325 684.7867656145257 0 2 0
14654 152 12 0 610.3234674027514 589.3190350772137 677.2908745581693 -2 -3 0
14652 152 10 0 607.1450728341592 588.6768706152768 682.6058004687372 -2 -3 0
14651 152 18 0 607.9973690245441 591.6677566525929 685.2146947239723 -2 -3 0
14653 152 12 0 609.6933943649492 587.0853553918196 680.3891257616334 -2 -3 0
14655 152 12 0 608.9621779308538 592.9142423324876 678.558909316755 -2 -3 0
14656 152 17 0 605.5719541978291 593.8805441412077 676.738633118658 -2 -3 0
14650 152 17 0 611.5671946275738 593.2534379127684 685.9546494954595 -2 -3 0
14660 152 9 0 594.7951157714205 599.6594918467888 679.5856087057201 -2 -3 0
14658 152 20 0 598.5655777710142 594.4935000587064 675.1967310301517 -2 -3 0
14659 152 2 0 596.8311992024786 596.9331480318031 677.7565446194669 -2 -3 0
14657 152 12 0 601.7254355501503 593.8642973421437 678.1300934233212 -2 -3 0
14649 152 20 0 612.608781761608 596.9364421360716 685.3246527892237 -2 -3 0
14648 152 1 0 611.6351945599876 599.7620591879797 683.2200372513778 -2 -3 0
16866 174 12 0 570.3417920171113 571.6251097254143 693.1666690121193 0 2 0
13873 144 20 0 559.391142971008 556.6190853559366 709.685689796439 1 1 0
13874 144 17 0 559.6155339916388 552.8474536277422 710.9303046852317 1 1 0
13872 144 1 0 562.2405889618524 556.8400006535574 706.5558165733725 1 1 0
16867 174 18 0 566.6263505503553 570.6005756039505 692.8851738948944 0 2 0
16868 174 15 0 563.869845859366 573.2841939227193 692.8263348359209 0 2 0
16869 174 2 0 560.5555506894989 574.9322192444022 692.5765191904804 0 2 0
12907 134 12 0 570.0313041960569 560.7785604193377 702.736734238463 -1 -3 0
16873 174 6 0 552.6688570107453 571.6057040767598 700.2949346046621 0 2 0
16875 174 9 0 549.1090352550781 572.7520161397573 706.3519429522776 0 2 0
16872 174 10 0 556.3531923109668 572.0665555510783 699.8484468584776 0 2 0
16871 174 5 0.75 557.0051239005 571.3903979415037 696.2447800580728 0 2 0
16870 174 9 0 557.2694187633931 574.9563304143938 694.3081655592715 0 2 0
12911 134 12 0 569.0471021412612 554.6860944164551 709.4076485374519 -1 -3 0
12910 134 17 0 566.4752015943335 557.3229179965506 710.623474430656 -1 -3 0
12908 134 12 0 569.3440428127751 562.1322759023865 706.2359925907135 -1 -3 0
12909 134 12 0 567.0968414051683 560.7043773688109 709.1632458544854 -1 -3 0
16874 174 2 0 550.2769973448308 573.034534766255 702.6975836985073 0 2 0
14760 153 18 0 549.273237418755 553.1338749196692 710.2091956837834 -2 0 0
14759 153 12 0 551.9329972552334 551.3730419410151 707.7949863156058 -2 0 0
13612 141 12 0 590.6766388555944 563.8996319062973 694.2145501359443 -1 2 0
13613 141 9 0 591.3532385699721 559.9124890910078 693.0999660612993 -1 2 0
13615 141 18 0 592.7108383874757 553.4170755704296 691.1453172693716 -1 2 0
16865 174 17 0 573.7798440762851 572.3128569388737 695.1091706227298 0 2 0
13610 141 20 0 585.0175135397348 566.4139378459853 692.3541978468146 -1 2 0
13611 141 2 0 588.6151610716172 565.3816734825424 691.1743560811993 -1 2 0
13608 141 12 0 584.6028810798525 567.3047125909391 697.9792554317306 -1 2 0
13609 141 12 0 584.8856786193634 563.8111377793689 695.727487605459 -1 2 0
13607 141 6 0 583.9536347057586 569.8428784464431 701.1229292969368 -1 2 0
13606 141 17 0 586.0126643905239 572.7268873232938 700.0688139766423 -1 2 0
15328 159 20 0 578.3267075878078 565.7558177355406 701.3059552783886 1 -2 0
15329 159 17 0 578.5894447287734 564.7951276565215 705.3537476223482 1 -2 0
13597 141 9 0 591.3171363472297 572.4863031989124 694.476299356863 -1 2 0
17124 177 12 0 591.3321010218497 568.6829501012381 705.3646889025655 -2 -1 0
15330 159 18 0 581.6093688029807 565.3223086137262 707.8515319513234 1 -2 0
15327 159 1 0 575.1710513055322 567.6017062840706 699.531794036004 1 -2 0
17122 177 13 0 585.5373582860317 571.2118428491133 708.8287501587802 -2 -1 0
17123 177 17 0 588.6367116740291 569.5041053543863 707.5565173674837 -2 -1 0
14699 152 12 0 591.5383335670875 552.2852337047038 705.5258501115835 -2 -2 0
14700 152 12 0 589.0938938813613 553.8094062106496 707.2773905736766 -2 -2 0
15331 159 10 0 584.4200257590575 565.1706134381155 705.3270913165751 1 -2 0
12906 134 10 0 573.7977122250988 559.8151163273975 702.8311212326399 -1 -3 0
17125 177 12 0 592.3081813572926 568.4010445582132 701.720344605528 -2 -1 0
14698 152 17 0 591.7593303088428 549.3971517835736 703.0620418337711 -2 -2 0
13605 141 2 0 589.7212746501136 573.3934799876135 700.0560331246761 -1 2 0
12912 134 20 0 572.3420977507375 556.3606886793572 709.3762595519339 -1 -3 0
15332 159 12 0 587.7018225394637 563.7155173947775 704.1093978575988 1 -2 0
15333 159 12 0 589.8148842183706 560.6968070031312 704.1128623355775 1 -2 0
14701 152 2 0 589.4999774509257 555.7276989534179 710.8262279688818 -2 -2 0
15334 159 12 0 591.8274159486385 559.705324402382 707.4487421322345 1 -2 0
12905 134 18 0 576.0573558177758 559.9292776228374 705.8966611545152 -1 -3 0
12904 134 17 0 579.1587764258404 557.5730914237042 704.8846527382306 -1 -3 0
12902 134 1 0 582.2528499429835 556.5881003233943 697.7409624536506 -1 -3 0
12903 134 20 0 580.9036114179329 556.8352534731303 701.3276933634716 -1 -3 0
13598 141 2 0 594.4528681847316 573.2799215620527 695.6802125845209 -1 2 0
13599 141 12 0 596.5426914264092 574.4120121355402 698.3736941653439 -1 2 0
13600 141 13 0 597.7836171366949 572.9111280390207 701.4756696332528 -1 2 0
17126 177 2 0 594.2024516466574 565.5717238008316 700.3518703915158 -2 -1 0
17130 177 4 0 602.6478289510676 560.9483321242482 704.2837724529933 -2 -1 0
17131 177 12 0 601.8470684213944 557.205226882314 704.0101008161927 -2 -1 0
17128 177 17 0 600.2970534741092 563.879041042246 700.233280639169 -2 -1 0
17129 177 12 0 600.8830555811815 564.2798373748468 704.151068557368 -2 -1 0
17127 177 14 0 596.7028247050314 563.4995802417287 698.4418301357397 -2 -1 0
17133 177 15 0 596.772379450164 554.8813315554983 701.0352552911068 -2 -1 0
17132 177 15 0 599.0033031041712 557.6784660633589 701.7874165808233 -2 -1 0
17135 177 18 0 600.9727565532769 553.9864263509459 696.8373017606475 -2 -1 0
17136 177 13 0 604.3884341040439 552.4805445435522 696.2242630103303 -2 -1 0
17138 177 2 0 610.4988347919685 555.1241013589416 695.3874377615015 -2 -1 0
15366 159 10 0 608.11408780612 573.4231145110616 706.1767108366155 1 -2 0
15365 159 12 0 607.8430347707485 571.0714288967304 703.196255105191 1 -2 0
17139 177 18 0 613.5965970331613 556.7984106617815 694.8213700543673 -2 -1 0
15364 159 13 0 607.7779916977859 567.0481276984219 703.249119595045 1 -2 0
17137 177 1 0 607.4550170563826 553.8783964844517 697.5360860294551 -2 -1 0
15339 159 9 0 604.7815515228735 559.5925425251532 710.3458917511905 1 -2 0
15343 159 9 0 612.8404968757883 566.7122704276242 708.6465002000576 1 -2 0
17155 177 18 0 613.5660826695917 555.4280913625136 703.3025726083833 -2 -1 0
15367 159 18 0 612.0105915214798 573.6460651048877 707.3917117367737 1 -2 0
17113 177 18 0 603.097571911378 571.8357347903569 710.3628962949423 -2 -1 0
15338 159 2 0 602.9601947444517 563.139615308447 709.6155508547947 1 -2 0
15342 159 18 0 609.810139379056 568.6297875853919 710.357657471478 1 -2 0
15361 159 18 0 613.6090653519784 562.2209142315609 703.7804989069783 1 -2 0
17117 177 1 0 595.4593982651897 573.4313101310756 710.3542787582126 -2 -1 0
15350 159 9 0 611.8758580122071 573.0052983052173 697.8908013231136 1 -2 0
17134 177 6 0 597.8720874242749 551.9138515403331 698.9708126872572 -2 -1 0
15335 159 17 0 594.5940925208594 559.4084497462159 709.5404636818243 1 -2 0
15337 159 20 0 599.070570713196 563.9233344439859 710.0255140849101 1 -2 0
15363 159 2 0 608.5360050579541 563.1050158329341 702.6459551970858 1 -2 0
17154 177 11 0 609.8523977592345 554.3143738496045 705.1017321746879 -2 -1 0
15352 159 17 0 615.3741067464424 573.152436129396 692.1017637099617 1 -2 0
15351 159 2 0 611.8777203313808 573.8794808181473 694.0491303974134 1 -2 0
17153 177 1 0 609.4171458304268 550.7431856603786 703.9106845038534 -2 -1 0
15362 159 17 0 610.2981991574803 561.2572974680121 705.3415945306737 1 -2 0
15344 159 2 0 615.0594004432606 569.7928935949343 709.4406286477147 1 -2 0
15360 159 1 0 614.5921017275743 565.6781924496391 702.291112705977 1 -2 0
13587 141 12 0 568.7107697371522 579.5922856720821 698.4013978254744 -1 2 0
13584 141 18 0 566.5295749403267 586.4631668718836 691.9228910564525 -1 2 0
13585 141 10 0 564.5423913832851 583.8966353255491 694.1079462490842 -1 2 0
13586 141 12 0 567.1651403138073 582.0029169249046 696.1393831397315 -1 2 0
16838 174 12 0 565.1435636659513 594.0883874392932 698.8076380216512 0 2 0
16839 174 4 0 568.318495795469 596.0275227744039 699.293353574822 0 2 0
16840 174 12 0 569.9116759174564 593.358148651997 701.7994464639075 0 2 0
16837 174 17 0 563.109999736633 593.6033851386208 701.8680629102109 0 2 0
16836 174 14 0 559.9193147640725 595.0165734864287 703.2920655472604 0 2 0
16835 174 2 0 560.5370606951535 598.0769086449125 705.1801945120122 0 2 0
16834 174 12 0 558.7748161272247 600.269666006757 707.9974701331041 0 2 0
13593 141 9 0 586.4628384707484 580.0092966357295 701.3141149468298 -1 2 0
16863 174 11 0 576.2307762046677 576.3099547078876 692.1155096603694 0 2 0
13591 141 20 0 581.5811411593863 575.4042829895046 704.5082542846291 -1 2 0
16855 174 18 0 581.6234921632938 585.3623366154469 691.4669262838406 0 2 0
16853 174 12 0 585.811207021946 584.3899721961936 695.0981897043304 0 2 0
16854 174 18 0 582.7493051339616 582.4144364214711 693.8677091534802 0 2 0
13592 141 2 0 583.8552107668042 577.5061165286662 702.1695344251938 -1 2 0
13596 141 18 0 590.2991749025141 576.019870302994 694.1355340034942 -1 2 0
13595 141 12 0 587.5729705682752 578.5136427033009 694.0708579749639 -1 2 0
13594 141 18 0 586.7377994187303 578.4795413631311 697.9671197157138 -1 2 0
13604 141 9 0 591.2549217414278 575.7073966542315 702.7133703882383 -1 2 0
16864 174 18 0 576.0488897412383 575.4068251569371 695.4275828517084 0 2 0
13588 141 12 0 572.3061771056271 580.0119485758017 699.7822316843891 -1 2 0
16849 174 17 0 578.119737987947 591.4895747736724 697.6525928724327 0 2 0
16852 174 10 0 586.510853536032 587.0040009789973 697.7604138574355 0 2 0
16843 174 6 0 578.0951181128166 593.3303449065318 705.8235504287928 0 2 0
13589 141 17 0 575.6954968462343 578.9147010939955 701.0004067243715 -1 2 0
13590 141 12 0 578.9344892304023 576.9823914548082 703.0208502820595 -1 2 0
16848 174 18 0 580.1446270317043 594.4787732314962 698.3308400300709 0 2 0
13603 141 13 0 593.3653045122578 579.2479263358945 703.0396876940432 -1 2 0
16845 174 13 0 584.325279302065 591.4326503528238 704.7935750806714 0 2 0
16850 174 9 0 579.3302992001409 587.8199026892744 697.1727931169306 0 2 0
16851 174 2 0 582.7569204808739 587.8374246291359 699.0209784318859 0 2 0
16841 174 15 0 572.437702140627 590.0999485347453 702.2365717601384 0 2 0
16842 174 15 0 575.6103063521222 591.4638862458474 703.9708307804407 0 2 0
16844 174 18 0 581.2287890134058 591.8169434801899 707.2961797514863 0 2 0
16846 174 1 0 584.5540346818713 594.3066640937369 702.7498064984233 0 2 0
16847 174 2 0 583.5791283537872 593.4988758623364 699.0272942541776 0 2 0
17475 181 12 0 585.2656829446308 600.4782225787752 711.0514917474845 1 0 0
17503 181 9 0 590.8155179079503 592.217764847702 710.9830210771996 1 0 0
13967 144 4 0 586.8955298372051 597.6542662402181 697.4867564572547 1 0 0
17473 181 9 0 591.7745296651899 600.3244311903137 708.1217586937217 1 0 0
13966 144 8 -0.75 588.3937275230954 600.213094465478 700.2386943558038 1 0 0
13968 144 12 0 583.6355735690676 597.5909498270253 695.6831318092873 1 0 0
15373 159 2 0 615.0055824202633 584.9459840584957 696.840128877075 1 -2 0
13601 141 2 0 597.6998219935962 575.0312891774432 704.7687760710025 -1 2 0
13602 141 12 0 596.0092401752746 578.7710787128565 705.3479369973915 -1 2 0
13056 135 4 0 614.2928526843187 592.097917146813 699.872109813972 0 0 0
17470 181 12 0 595.9389724964318 597.0300464475401 699.0230411969756 1 0 0
15368 159 6 0 611.4864597430252 577.2110573054168 706.4443447748347 1 -2 0
15414 159 2 0 605.7150506309843 591.181674292342 698.5550472298853 1 -2 0
15413 159 15 0 603.0211166190415 593.4995602660675 696.4156542318099 1 -2 0
15415 159 9 0 604.3076837764663 590.3381507467311 702.0019489953761 1 -2 0
15421 159 8 -0.75 598.6462996248438 587.2402370803501 705.8346925913587 1 -2 0
15420 159 9 0 595.7244846524317 589.6731370540136 706.0595567178135 1 -2 0
15419 159 2 0 597.3436055743041 591.0731394081711 709.2732254997459 1 -2 0
15418 159 6 0 598.9333391377158 594.6499323348578 709.3508006645321 1 -2 0
15417 159 10 0 602.2440891508453 594.5858735474444 707.5741133250917 1 -2 0
15416 159 5 0.75 602.5805882031681 591.7167372417254 704.9952013166132 1 -2 0
15422 159 4 0 598.3620670774645 586.723558375164 701.793476758142 1 -2 0
15372 159 9 0 613.4824624400608 582.7049668108092 699.5375098700624 1 -2 0
15370 159 2 0 612.3900392079859 584.4467803438971 706.223679197779 1 -2 0
15369 159 9 0 612.6088427126997 580.5251938108199 706.7754942664544 1 -2 0
17111 177 12 0 604.9106408822556 577.4097749765842 710.0787901277213 -2 -1 0
17112 177 10 0 602.0696339150135 575.165482610416 708.8745386611693 -2 -1 0
15371 159 1 0 612.9278383348213 585.2756085678462 702.4744005276184 1 -2 0
15423 159 12 0 599.3878179913087 585.791653744878 698.5786872763798 1 -2 0
13058 135 15 0 615.172779279187 598.9137911443695 698.0658247924861 0 0 0
13054 135 17 0 612.0168078773283 592.3373486464994 706.3373547650198 0 0 0
13055 135 12 0 612.3234047354739 591.3136652767985 702.9576811456652 0 0 0
15412 159 18 0 605.5116525836102 594.635463845459 693.7837198376956 1 -2 0
15349 159 13 0 614.1467374858701 575.981215680979 699.0636189191499 1 -2 0
15409 159 18 0 608.8763193712828 600.8769236515892 701.7103878623935 1 -2 0
17471 181 20 0 595.0208487655626 596.8796307386058 702.7718799142806 1 0 0
13053 135 14 0 611.372904059557 593.7053916793496 709.7810096049706 0 0 0
15407 159 1 0 610.1071376576858 600.63153270761 706.9231637848341 1 -2 0
16648 172 15 0 615.5247535341385 598.2532970214415 703.285930923861 1 -1 0
15411 159 12 0 607.7468188580827 597.1422552720236 695.3735581193954 1 -2 0
13057 135 12 0 613.965776923891 595.072200003572 697.8052428905725 0 0 0
15408 159 11 0 607.7025253566717 598.9876210343675 704.8191851412752 1 -2 0
15410 159 17 0 608.5950873630028 599.6886175021741 698.3423427414308 1 -2 0
17469 181 17 0 595.1925566515102 600.3892936317967 697.3549801634766 1 0 0
17472 181 2 0 594.5644129957421 598.2908561644161 706.4289285530432 1 0 0
17736 183 11 0 551.1606674803439 573.2886291794246 723.5144248644365 3 -2 0
13875 144 18 0 559.6355079705229 551.7714853498622 714.8550771883786 1 1 0
13580 140 12 0 554.8657623106188 562.4772481325 721.8994021424951 1 1 0
17737 183 18 0 555.0185242936332 574.6175539271936 722.1389119761735 3 -2 0
17738 183 17 0 557.6812764860317 572.6114022854247 720.7866477781755 3 -2 0
17739 183 12 0 560.5156393874264 571.9403559906816 718.0484771103817 3 -2 0
13574 140 10 0 565.3691553897834 563.9472237897465 723.4027862746015 1 1 0
13575 140 6 0 562.1813395268707 564.6296166149245 725.3097513288391 1 1 0
13576 140 2 0 560.7641537099 565.8078280650209 721.8301997438133 1 1 0
13577 140 9 0 561.8158676581487 564.7706517485087 718.4049983349572 1 1 0
13579 140 4 0 556.2113535843512 562.8289229179758 718.2866013039416 1 1 0
13578 140 8 -0.75 559.6648619152566 562.4883377642541 716.8531507421535 1 1 0
13572 140 9 0 570.6888606602523 560.5760890330764 726.7692557692851 1 1 0
13573 140 5 0.75 567.3860167027073 562.0014227807 725.856903828534 1 1 0
15482 160 12 0 568.5111001908413 552.8098920978514 716.7727530746632 1 -2 0
15483 160 15 0 567.1373244367078 552.7394706644218 720.117439610501 1 -2 0
15481 160 4 0 569.3267449102034 556.2802782114524 716.6017592745916 1 -2 0
15487 160 13 0 563.2058075657662 555.4280602510661 728.53089313858 1 -2 0
15486 160 18 0 564.4379113399795 552.397732129584 726.4011365871451 1 -2 0
15485 160 6 0 562.5806789248352 549.6906762802662 724.4306559306029 1 -2 0
17740 183 18 0 563.5971085466974 572.9886728655339 715.8085693933951 3 -2 0
16783 174 20 0 564.4982170405661 569.7428250478787 728.9047357829147 0 2 0
17741 183 15 0 566.7189731987899 574.7950059039283 714.6295954568449 3 -2 0
16782 174 1 0 566.2200116600198 570.932660960822 725.969182463759 0 2 0
17742 183 2 0 569.6530125057776 574.030012428758 717.3524738928104 3 -2 0
17743 183 9 0 570.2271988259148 573.3685190478435 720.9663608449894 3 -2 0
15484 160 15 0 563.495837057178 551.9941713353402 721.361570448479 1 -2 0
12920 134 12 0 577.8550792241017 570.7737292544963 725.3219330701877 -1 -3 0
15480 160 12 0 571.9557075681375 558.7951357744905 716.812138105128 1 -2 0
13571 140 2 0 573.045180118655 558.9561616291957 724.1890849371055 1 1 0
12919 134 2 0 577.9123074918114 571.6938875060055 721.5528603315715 -1 -3 0
12921 134 13 0 575.2686482974034 568.157538656538 726.4566369905867 -1 -3 0
13570 140 15 0 576.5838428141923 557.4786526008879 725.0232918318653 1 1 0
13569 140 18 0 575.8383956866292 557.1289764844818 728.9966251210823 1 1 0
15476 160 12 0 580.2600681657509 565.5474513376314 723.5309355465716 1 -2 0
12913 134 2 0 575.5473963079562 556.5068998656261 711.5368619933533 -1 -3 0
12915 134 18 0 576.9816189837067 563.4096818009446 713.3763073835139 -1 -3 0
12914 134 9 0 577.6994821655935 560.2384118322182 712.0699176329408 -1 -3 0
12917 134 18 0 575.8334500462205 568.5108457977756 715.0608468383816 -1 -3 0
12918 134 9 0 576.055297910278 569.8721944637748 718.5826187821389 -1 -3 0
15458 160 18 0 585.3057476978423 569.7697954016379 717.2363162948861 1 -2 0
15459 160 17 0 583.6697061205093 570.3164864480955 720.5048234115627 1 -2 0
15457 160 1 0 588.0279085075679 571.9121924496026 716.1942497354066 1 -2 0
17121 177 6 0 584.3422864169993 572.9490800876197 712.2008801743735 -2 -1 0
15456 160 9 0 590.8694142939545 572.2910094112655 718.6682148634771 1 -2 0
12916 134 12 0 575.2594458914408 566.5038049002168 711.4468445728752 -1 -3 0
14278 148 12 0 582.3759519661853 551.9714435645362 724.3704061556276 -2 1 0
14279 148 13 0 579.3837705268644 550.1250614430764 726.0080614629743 -2 1 0
15479 160 17 0 572.4589066982495 562.3930032057509 717.5801705050668 1 -2 0
15477 160 2 0 576.7708237703125 564.3765659764063 721.6183072739915 1 -2 0
14702 152 14 0 588.5716350938036 556.7551791055354 714.3088112172425 -2 -2 0
15460 160 2 0 586.3719599625356 568.2478277997352 722.0754288813802 1 -2 0
15462 160 12 0 592.3256288884304 570.0444775600399 725.7430904576703 1 -2 0
15461 160 13 0 588.7931344084168 570.316822153824 724.6996266829877 1 -2 0
14280 148 2 0 580.8613557929235 549.3576422700371 729.6236653872446 -2 1 0
15475 160 12 0 581.56531702725 563.9954884915304 726.8186768568044 1 -2 0
15478 160 14 0 573.3566742504764 563.8946713054972 720.9238946954988 1 -2 0
15474 160 17 0 581.5097373783085 566.8368906733064 729.6423540184253 1 -2 0
14703 152 17 0 586.268109285042 554.3793585661422 716.667845333749 -2 -2 0
14277 148 2 0 585.9067100890701 551.2020106888635 725.1469028473234 -2 1 0
12922 134 2 0 572.2812288964351 568.0679414851624 728.7917323479805 -1 -3 0
13568 140 12 0 572.7599425916694 554.8746823195511 730.4889711663346 1 1 0
14275 148 18 0 590.7266399164936 553.4457259727251 723.7720312158779 -2 1 0
14276 148 9 0 589.6565548645718 550.2021235308931 724.755771763159 -2 1 0
14704 152 12 0 584.3619854197188 551.6665606081121 714.5880811594648 -2 -2 0
15340 159 18 0 607.5066129760997 561.8749756825006 711.2836436985897 1 -2 0
15341 159 12 0 607.3115385176518 565.8775594714737 711.4744149384461 1 -2 0
17114 177 6 0 602.0399581256636 570.7623774090368 713.7923796553589 -2 -1 0
17116 177 2 0 597.6082502615549 572.1850113887631 713.2880265208872 -2 -1 0
17115 177 9 0 599.0697193102133 568.8204126603646 714.8027333880925 -2 -1 0
15463 160 10 0 593.5234783706619 567.2674978501265 728.5583155998701 1 -2 0
15453 160 20 0 597.8881675965307 574.7766952602994 721.8508545731836 1 -2 0
15454 160 2 0 596.5279487019369 574.0350158675304 718.0684720089176 1 -2 0
15336 159 12 0 597.4226290719073 560.9492196701724 711.6685269952064 1 -2 0
15452 160 12 0 601.5421750859246 573.8641496736398 721.333554418766 1 -2 0
14272 148 9 0 598.7284698911666 550.4748292154461 717.1394043044381 -2 1 0
14273 148 18 0 597.4123570958856 553.2522698094496 720.0933528770814 -2 1 0
14274 148 12 0 594.1352384483318 553.1837962733591 721.9881541905221 -2 1 0
17735 183 1 0 549.7215894960115 575.0505527294669 720.2976533764531 3 -2 0
14850 154 17 0 560.3111601594927 597.4438408290549 724.2152744192457 0 1 0
14876 154 18 0 555.9639862046755 595.3839491683879 721.2901054725074 0 1 0
14877 154 17 0 554.5436943962984 596.1654686872362 724.7635255723475 0 1 0
14874 154 9 0 561.6365904124754 596.5412174872877 716.106337960306 0 1 0
14875 154 1 0 558.1195959990732 595.4539332036667 717.9677942527378 0 1 0
14851 154 12 0 560.8726366045595 596.4176722819174 727.8897358143905 0 1 0
14854 154 9 0 564.4617433353774 590.4785059734761 731.214457367735 0 1 0
14853 154 2 0 560.5076374032847 590.8799609108718 730.5262775556116 0 1 0
14878 154 2 0 551.1925070895694 597.6332682060264 723.6721372809731 0 1 0
18209 188 2 0 551.4741123995902 593.6439935086539 729.0787484844466 0 -1 0
14855 154 18 0 567.1623156918679 593.3961446829628 730.7805231876299 0 1 0
18210 188 10 0 549.8822987570753 590.142462423686 729.1059175765131 0 -1 0
14857 154 18 0 570.732073453387 596.5052191690694 728.9441124875915 0 1 0
14856 154 12 0 570.456463240789 592.5930780928575 729.0827655172131 0 1 0
14873 154 12 0 562.2950175890359 599.6111123216541 714.4797519550619 0 1 0
14852 154 20 0 558.4814085829983 593.6112554672269 729.4460585021628 0 1 0
14066 146 1 0 571.6112466845103 589.942853338069 712.8697239330726 -2 2 0
17505 181 1 0 586.9096109468584 585.8524178191907 711.9506590505622 1 0 0
17118 177 9 0 592.2854674207643 575.0464600170383 711.3786545018227 -2 -1 0
17744 183 5 0.75 571.1234267465594 576.1696248017711 723.0558386687393 3 -2 0
15455 160 12 0 593.0773111487501 575.3670429857209 717.9357739192775 1 -2 0
17119 177 2 0 588.7148840050852 575.756409369279 712.5724530521711 -2 -1 0
17485 181 2 0 579.0968597403532 594.8953302212009 726.8853272099799 1 0 0
17747 183 2 0 579.0841304277972 581.8961568937424 726.1528586713908 3 -2 0
17748 183 9 0 580.8127406826612 579.1526853966182 728.339862824472 3 -2 0
14067 146 20 0 572.9501792579266 586.6388700512894 711.682647720153 -2 2 0
14068 146 17 0 576.2389298605339 584.7810042479072 712.5708513949697 -2 2 0
17120 177 12 0 585.016262955065 576.4912644064902 713.502435609228 -2 -1 0
17746 183 6 0 576.608112078088 580.0808529189311 723.762416439662 3 -2 0
17745 183 10 0 573.699654458946 578.2287463793076 725.4862190830958 3 -2 0
14071 146 12 0 579.7049630516108 576.8501467029926 720.0498140728888 -2 2 0
17506 181 9 0 583.3169116249705 586.4697353411048 713.7487839773469 1 0 0
14070 146 10 0 577.8786370523071 579.6375750115404 717.8418171699254 -2 2 0
14069 146 18 0 577.6760626578048 581.7701635428501 714.706917054948 -2 2 0
14072 146 12 0 583.3608361616762 576.5445868149683 721.6377003544304 -2 2 0
14073 146 12 0 585.9578301679635 577.5211649083437 724.6552218773259 -2 2 0
17507 181 2 0 584.1884466413688 589.8180614013074 715.0469713824851 1 0 0
17509 181 6 0 586.1146050064068 590.704385180875 721.8672524851952 1 0 0
17510 181 13 0 587.4026304503107 591.8582442160077 725.2063740791184 1 0 0
17504 181 2 0 588.421627614453 589.482560848817 712.2266531303744 1 0 0
17508 181 12 0 586.3516120951449 591.2351966697795 718.1573964996867 1 0 0
17511 181 17 0 585.0663486001444 591.874177850407 728.108074495576 1 0 0
17512 181 12 0 582.5659281948859 589.8021190985717 730.1498317762066 1 0 0
17502 181 6 0 589.0999806762165 594.9503298587471 713.9972245120019 1 0 0
17501 181 18 0 588.8468542004213 597.5236055483213 716.892998846969 1 0 0
17484 181 9 0 581.3831161479831 595.7276803347617 724.3747954561372 1 0 0
17483 181 13 0 582.8568849359738 597.8586672018636 721.8979836720545 1 0 0
17482 181 12 0 585.0445023199153 601.0311643269997 723.0770870660225 1 0 0
14075 146 12 0 589.3238257888438 580.4592567720098 721.0910835112588 -2 2 0
14074 146 17 0 589.7047766385933 578.0054482221803 723.72630006824 -2 2 0
14076 146 20 0 586.0496813081224 582.9902970153602 720.869493126861 -2 2 0
17500 181 10 0 592.0946627995919 599.2185155092807 715.7827719659603 1 0 0
17105 177 9 0 592.8714473036788 583.1113915844852 715.1767997837042 -2 -1 0
17095 177 13 0 593.1465053840063 592.9610160327986 718.9530514898452 -2 -1 0
17749 183 8 -0.75 583.404458339338 576.7181154568216 729.9606759030875 3 -2 0
14079 146 18 0 591.5706667793037 582.3367235126223 728.6359477649756 -2 2 0
14078 146 9 0 588.8820610125641 584.5395063060171 726.7722696343566 -2 2 0
17486 181 17 0 576.6739232478947 593.9852367154938 729.8306397304691 1 0 0
17488 181 12 0 582.4046067537672 596.5416066124939 731.1161317688774 1 0 0
17493 181 9 0 590.1223534869931 595.2501845113626 730.7646349145197 1 0 0
14077 146 2 0 586.537138635638 583.5828843237275 724.5464004271515 -2 2 0
17476 181 18 0 582.6684449159385 599.4513064669165 713.9098289916379 1 0 0
17494 181 1 0 591.6647490688314 597.4980216372717 727.6741025971669 1 0 0
13046 135 12 0 609.0832349777108 585.034384356966 712.2564840806124 0 0 0
15447 160 9 0 614.8564554387593 581.1941840605142 717.6700185581857 1 -2 0
17110 177 13 0 606.0233556961454 579.4129419053723 712.7972587947314 -2 -1 0
17109 177 2 0 602.7694405410675 581.1680207799203 713.6012637975145 -2 -1 0
17089 177 9 0 603.9057741106228 599.6679865072293 713.4222370301413 -2 -1 0
17107 177 18 0 597.418935666872 583.8208601424168 711.3372068611922 -2 -1 0
17108 177 17 0 598.9236773005388 580.8411054134154 713.5621170313188 -2 -1 0
13045 135 2 0 611.367019671768 588.062868629088 713.4033311449722 0 0 0
13051 135 12 0 611.2724100364815 596.5326753417163 715.9086052857692 0 0 0
17092 177 13 0 601.3519952899259 591.8749663819145 717.304343157949 -2 -1 0
13052 135 2 0 612.1781828754669 595.8270477178905 712.4397162261521 0 0 0
15451 160 12 0 604.1220488029569 575.8496575277618 719.254552424756 1 -2 0
17091 177 12 0 600.5244105326522 595.4941008627686 716.7931500880554 -2 -1 0
17094 177 12 0 595.3160718488983 589.6987989620806 717.8053744783331 -2 -1 0
17104 177 12 0 595.0499582937723 581.0088391847903 717.5044397538339 -2 -1 0
13050 135 12 0 610.378256060565 593.8545410036614 718.2249398262513 0 0 0
17096 177 9 0 594.4979622676575 594.67422762305 722.3686292980652 -2 -1 0
17106 177 1 0 594.1758894104391 585.497172124898 712.7081368130671 -2 -1 0
15450 160 6 0 605.6489423133482 578.5316186005308 721.2726063952376 1 -2 0
15449 160 17 0 608.7089514047456 579.76524632015 719.8845714640174 1 -2 0
15448 160 2 0 612.0953118607782 578.5097067769623 718.7118821039328 1 -2 0
17097 177 2 0 594.3530094693685 591.7583169479176 724.79866915868 -2 -1 0
13049 135 17 0 608.7008038414193 590.497104865156 717.6691545182028 0 0 0
13047 135 6 0 609.4172290270392 584.866251493655 716.1526118032488 0 0 0
13048 135 13 0 607.9320258878081 587.1902433982642 719.12320007902 0 0 0
17099 177 6 0 599.1451856299913 588.0874544103746 725.6766585829771 -2 -1 0
17101 177 12 0 601.6490961174161 585.6767936704156 721.2313282586416 -2 -1 0
17103 177 2 0 597.6364108298318 582.6886759832698 719.698636390762 -2 -1 0
17102 177 20 0 601.3553773762421 583.1530341389621 718.6167594944292 -2 -1 0
17093 177 2 0 598.5797303877773 590.6896718375618 719.7445223905447 -2 -1 0
14108 146 9 0 612.8322136490158 592.3881085163148 725.2111804013514 -2 2 0
17100 177 12 0 601.7541811753848 585.6188335410988 725.0900815798509 -2 -1 0
14105 146 10 0 614.1519649558722 584.0649362432977 728.5458575200297 -2 2 0