LAMMPS data file via write_data, version 8 Apr 2021, timestep = 11390002

6208 atoms
40 atom types
6144 bonds
1 bond types

548.8454457994151 651.1545542005849 xlo xhi
548.8454457994151 651.1545542005849 ylo yhi
548.8454457994151 1265.009204607604 zlo zhi

Masses

1 131.199997
2 57.0499992
3 128.199997
4 101.099998
5 156.199997
6 71.08000180000001
7 115.099998
8 129.100006
9 163.199997
10 99.0699997
11 113.199997
12 128.100006
13 186.199997
14 147.199997
15 87.08000180000001
16 137.100006
17 114.099998
18 97.1200027
19 103.099998
20 113.199997
21 131.199997
22 57.0499992
23 128.199997
24 101.099998
25 156.199997
26 71.08000180000001
27 115.099998
28 129.100006
29 163.199997
30 99.0699997
31 113.199997
32 128.100006
33 186.199997
34 147.199997
35 87.08000180000001
36 137.100006
37 114.099998
38 97.1200027
39 103.099998
40 113.199997

Bond Coeffs # harmonic

1 9.6 3.81

Atoms # full

13619 141 12 0 607.8347406072656 551.407684368085 668.7012403178625 1 1 0
13622 141 6 0 604.5159163428591 556.3056024653501 667.365877008963 1 1 0
13621 141 18 0 602.5488825182399 553.5598628714223 668.6256141726063 1 1 0
13623 141 9 0 603.2010835744657 559.9067005209882 667.2333614649722 1 1 0
13076 135 17 0 582.1287172871776 573.4087725215222 667.2069217245858 -1 5 0
13077 135 2 0 578.4186688576492 574.5324589115957 668.5098309439022 -1 5 0
13086 135 2 0 562.8997990232768 568.6193547056301 689.7605244869254 -1 5 0
13618 141 13 0 610.0598707003918 553.6586494333276 670.8140804450783 1 1 0
13620 141 10 0 604.2781648862962 550.5366921127797 670.4519015824912 1 1 0
13626 141 9 0 604.094056663107 564.3763166370694 675.79975752217 1 1 0
13627 141 2 0 607.4708662455557 564.7096042766685 677.4859878921222 1 1 0
13624 141 2 0 603.9089361341091 559.8115432270204 670.8532946688192 1 1 0
13064 135 2 0 602.1830803726695 562.1040288289181 684.4091196536775 -1 5 0
13067 135 9 0 596.3258374601716 566.9003148247045 678.661857369132 -1 5 0
13625 141 1 0 605.1089868603023 561.5680723555239 674.0157326620307 1 1 0
13063 135 1 0 605.0413065615321 560.7830412016934 686.8719138064147 -1 5 0
13628 141 12 0 608.4153466531834 563.3457860219448 680.7454081690436 1 1 0
13065 135 18 0 598.9964750432176 561.4429912702853 682.3272063832386 -1 5 0
13066 135 17 0 596.9049619924792 563.0200433634982 679.4564189353273 -1 5 0
13072 135 18 0 591.4924195888005 568.8598846538442 671.220443934725 -1 5 0
13071 135 18 0 594.7441170473969 566.971014771115 672.2921171158231 -1 5 0
13070 135 12 0 598.1948882655114 566.7006725855493 671.3991122319918 -1 5 0
13069 135 10 0 599.8845450804226 568.9990427121613 673.8287656446097 -1 5 0
13617 141 2 0 612.7611690397988 552.425144953715 673.1149276982742 1 1 0
13616 141 17 0 612.3726703252252 550.5956438383328 676.3386555115464 1 1 0
13613 141 9 0 610.7404090149937 552.8584394014067 684.6137982973047 1 1 0
13609 141 12 0 616.1703377060272 562.2680462791731 687.6110104672051 1 1 0
13608 141 12 0 617.7601746900092 564.773862471131 689.8385000631457 1 1 0
13629 141 6 0 611.0190056189482 560.7947321093108 680.0476944651332 1 1 0
13631 141 17 0 612.2376660113489 561.1676155511847 674.0638277063015 1 1 0
13633 141 12 0 610.8883350128776 568.0307129107043 674.611768452118 1 1 0
13634 141 2 0 612.1840470389067 568.2606087759921 678.6675034690529 1 1 0
13635 141 14 0 615.1846638464468 565.8756158582974 678.4132819026999 1 1 0
13636 141 17 0 618.7252934398572 566.0133734689354 679.49488658899 1 1 0
13637 141 12 0 621.1552426182698 564.8983062072805 682.0215707069876 1 1 0
13632 141 12 0 611.2671767582292 564.7383376800311 672.686794127404 1 1 0
13630 141 13 0 612.0184123229496 558.801474226737 677.016502920177 1 1 0
13638 141 4 0 623.3603918611425 566.2923998331223 684.7962172531076 1 1 0
13639 141 12 0 627.058591233613 564.9275782967186 684.487231838807 1 1 0
13612 141 12 0 610.4997381908386 556.453959281149 684.1608145234069 1 1 0
13610 141 20 0 617.4185879052475 559.7847201091333 684.8635398574182 1 1 0
13611 141 2 0 613.5030928893706 558.8246972549199 684.7950787465393 1 1 0
13640 141 15 0 630.6933457782218 565.3031401110683 685.7230265764885 1 1 0
13614 141 1 0 611.2685331706801 549.3319540152813 682.9013598162098 1 1 0
13615 141 18 0 613.3387289523714 549.2086087661178 679.740752597672 1 1 0
13641 141 15 0 632.7127296268294 562.0748249627429 685.12120673201 1 1 0
13643 141 18 0 634.9367330306831 562.4104093107094 690.3698803334742 1 1 0
13642 141 6 0 632.7371929956948 559.7344661842455 688.2632724825471 1 1 0
13083 135 12 0 564.4380356757761 571.2021754630063 679.614497643309 -1 5 0
13084 135 18 0 563.1727409878945 570.8742853326719 683.1753433314469 -1 5 0
13082 135 17 0 567.4564556462916 573.1046534686803 681.1196658067255 -1 5 0
13085 135 15 0 564.6222715971894 570.0669314271825 686.4586903892717 -1 5 0
13074 135 2 0 586.1225793135945 571.2931435370089 672.9044085290171 -1 5 0
13073 135 12 0 589.1833230152512 571.7201425944303 670.5811567921902 -1 5 0
13078 135 15 0 576.4931771478036 573.704515606292 671.9321316318443 -1 5 0
13079 135 1 0 575.9039112060348 576.2678292332032 674.6862180883526 -1 5 0
13080 135 11 0 572.4380292975995 576.2203929530318 676.6426260490404 -1 5 0
13075 135 12 0 583.1216242531348 571.5094067153486 670.4716547736504 -1 5 0
13081 135 18 0 569.558463016816 575.3239380630324 679.21535045723 -1 5 0
13068 135 2 0 598.414046268127 569.8693638735482 677.2204395617222 -1 5 0
18131 187 9 0 605.7381626498902 585.9634953824691 690.329106310814 -2 0 0
18132 187 5 0.75 608.1180137149241 588.820970116728 690.4182777228543 -2 0 0
16872 174 10 0 624.0551189932521 572.1437213493554 675.8111235829285 0 1 0
16871 174 5 0.75 626.3369861063974 574.4103528865504 673.4267726966593 0 1 0
16868 174 15 0 621.5988286978578 582.7515418762007 675.4427032126447 0 1 0
16866 174 12 0 620.0810500337226 583.0207237979639 682.5745312724717 0 1 0
16870 174 9 0 626.3430975571206 578.0219540897444 672.9193419317985 0 1 0
16867 174 18 0 619.9874455406616 584.0048916957916 678.8171622586619 0 1 0
16869 174 2 0 624.0133725407582 581.0012126339171 672.9578294069114 0 1 0
16874 174 2 0 628.2143138323927 570.91255632736 677.9558699379647 0 1 0
16873 174 6 0 624.892557568027 571.1813513479883 679.3923608714395 0 1 0
16864 174 18 0 621.9412286509979 582.5185281718458 688.4098534893785 0 1 0
16865 174 17 0 621.5494679782856 580.890477683852 685.0623973715495 0 1 0
18136 187 9 0 621.1981385508337 588.9125723308879 686.2069824204189 -2 0 0
16877 174 4 0 632.2203803605839 576.7033254729798 673.6263285177693 0 1 0
16878 174 12 0 635.3507025389534 578.7695610351096 672.3560653128243 0 1 0
16875 174 9 0 631.866381833405 572.1293664214081 678.8290181778799 0 1 0
16876 174 8 -0.75 632.7324548767913 573.5948589359974 675.5973897991892 0 1 0
17850 185 20 0 549.9667221387247 597.5717560833951 680.8835573449311 -1 -1 0
17851 185 17 0 549.5243273498955 595.0064495774261 683.7503779173672 -1 -1 0
17916 185 17 0 548.9576327862553 605.7029894644166 689.7623950325169 -1 -1 0
17917 185 9 0 549.7709885048017 608.8483064980578 688.5793530292509 -1 -1 0
18133 187 10 0 611.4379256790629 590.2968509447614 689.7216858228168 -2 0 0
18134 187 6 0 614.9889881570556 589.6365099662581 688.6938464550526 -2 0 0
18137 187 8 -0.75 623.7097621495437 592.0399017720852 685.5648188615249 -2 0 0
18138 187 4 0 623.7651574609478 595.9345917721885 684.9777154825327 -2 0 0
18135 187 2 0 617.9535544632399 589.9407983993501 686.4967235837956 -2 0 0
18139 187 12 0 626.1558339020578 598.9488593639794 686.1254006544498 -2 0 0
17852 185 18 0 648.5286629367607 593.5967925511032 685.6600508781987 -2 -1 0
17853 185 10 0 645.8051039461484 596.2317223595635 686.4630021922127 -2 -1 0
17915 185 18 0 650.7757719645028 602.208594741953 688.1727134679148 -2 -1 0
17914 185 2 0 647.6463357620975 602.1971348230712 690.4809935670287 -2 -1 0
17849 185 1 0 648.748039925825 598.226185815809 679.1195739261045 -2 -1 0
17925 185 12 0 639.2025692065234 606.9181691737667 686.0430431222136 -2 -1 0
17924 185 2 0 637.7999848423027 606.8836461850142 682.3760560845978 -2 -1 0
17923 185 12 0 639.1443860120919 609.3826269650492 679.6613785062615 -2 -1 0
17926 185 17 0 637.9680651607364 608.5818087759756 688.8256867443287 -2 -1 0
17918 185 2 0 648.4333541086257 609.0265393570605 687.4116529631906 -2 -1 0
17920 185 12 0 646.2632769173199 607.5786358138114 681.44382937948 -2 -1 0
17919 185 10 0 647.2357834588328 606.5499064019375 685.0532981694397 -2 -1 0
16268 168 9 0 559.1052382507295 563.109174338669 703.7722171455031 1 0 0
16269 168 2 0 559.3992626702183 561.7579957152442 707.1526028588665 1 0 0
16270 168 10 0 559.4955039221061 559.0815312697813 709.8830008211212 1 0 0
16267 168 17 0 556.6260175752687 563.1246469655932 701.0027570001513 1 0 0
16266 168 18 0 554.9520736181305 566.4791333354484 700.5520956797219 1 0 0
13091 135 2 0 567.6028518258267 567.2361823330847 702.691412608633 -1 5 0
18042 186 12 0 566.6763837174287 557.9709529266648 699.6473689467034 1 1 0
18039 186 9 0 568.8938825733061 563.1432661373158 707.5285322805529 1 1 0
13570 140 15 0 554.2589816113491 555.2104815234953 701.9672415703292 3 1 0
13569 140 18 0 550.5187731867873 555.7614598786083 701.04262845118 3 1 0
13087 135 9 0 563.0972880114668 567.4309037786844 693.5452954289675 -1 5 0
13089 135 10 0 562.526640153348 568.6281698881717 699.9398894849342 -1 5 0
13088 135 5 0.75 562.0794723626332 565.9773826930717 696.7661591517909 -1 5 0
13090 135 6 0 564.0962779599158 567.304638614191 703.4251342814144 -1 5 0
13572 140 9 0 550.4087733175284 553.1007259036628 707.4589876604459 3 1 0
13571 140 2 0 552.7181234703968 555.68635716982 705.2232799267298 3 1 0
13506 140 13 0 565.4267318082099 549.7592913713189 703.3550075776909 3 1 0
13508 140 2 0 561.7551022142407 549.1985284996883 709.7711156430496 3 1 0
16229 168 20 0 583.9798006286359 555.2497859561105 706.8907064449457 1 0 0
18041 186 4 0 570.0358102985642 559.7971207320461 700.9262112551804 1 1 0
16228 168 12 0 584.8085553848839 557.8021184594963 709.4911843529052 1 0 0
18038 186 2 0 571.3805185206887 565.3106723589702 708.94331686746 1 1 0
18040 186 8 -0.75 569.4095505165807 562.4630999227614 703.889453973566 1 1 0
16224 168 2 0 577.819745343943 557.3220277179448 706.319607053505 1 0 0
16223 168 9 0 575.3942059963937 556.1384072674631 708.8111683723283 1 0 0
16221 168 12 0 571.4634327996395 550.3321144760166 707.0418709468263 1 0 0
16225 168 17 0 579.029101426516 560.6674852043479 707.8170773806736 1 0 0
16222 168 13 0 573.4655306047694 553.5588046492596 706.9724999448028 1 0 0
16230 168 2 0 580.5830660234387 553.9999721327437 706.2956906353155 1 0 0
18037 186 6 0 569.5300903044988 568.6469208337653 709.6907731833978 1 1 0
12852 133 12 0 589.0195028124426 562.3164236615157 709.2288303637988 -3 1 0
16231 168 12 0 580.62066138808 550.8921753333406 708.3205689581717 1 0 0
13062 135 13 0 605.3684581172096 560.8741781044865 690.6359547161524 -1 5 0
13061 135 18 0 608.8708581418738 559.4475952598029 691.8849836544613 -1 5 0
13060 135 6 0 609.1712711457307 558.386586811802 695.7378772103983 -1 5 0
13059 135 15 0 606.7712157556962 555.2380720166841 695.7125457812459 -1 5 0
13056 135 4 0 600.3867996931724 558.9185729183321 703.6590018103351 -1 5 0
13054 135 17 0 600.3890286188732 564.6566840708874 708.5699410961307 -1 5 0
13055 135 12 0 600.4119980803639 561.801834108736 705.5751316463848 -1 5 0
13058 135 15 0 603.9266249497908 556.0431380546303 698.0332875203495 -1 5 0
13057 135 12 0 602.5245003310341 558.1941353134631 700.7159559823253 -1 5 0
16852 174 10 0 607.1137260516964 567.9391881963143 708.573902978417 0 1 0
16853 174 12 0 606.0302860228634 566.4479202562021 705.133836457567 0 1 0
12855 133 17 0 594.5067277936037 567.9849327780382 704.1061970874646 -3 1 0
12854 133 13 0 594.4738991688334 564.5298439852603 706.1670871896828 -3 1 0
16854 174 18 0 609.7371487862363 565.572136751077 705.1400233782786 0 1 0
12853 133 6 0 593.0350573319951 562.7048113172417 709.026075375717 -3 1 0
13582 141 20 0 597.3927286003889 552.1234418382119 707.2661396875291 1 1 0
13581 141 1 0 599.4350267362921 552.9449191475992 710.4436811955931 1 1 0
13607 141 6 0 618.0851447845464 564.5963238122384 693.3063231674968 1 1 0
13606 141 17 0 621.1298257492952 565.583193546282 695.3273326101112 1 1 0
16857 174 2 0 617.5107846504568 568.5788998763286 699.1008388743467 0 1 0
13605 141 2 0 623.5460078735138 563.5362949474836 697.0926077703159 1 1 0
13604 141 9 0 623.4162895870255 561.0823934770509 700.192604561786 1 1 0
13603 141 13 0 620.343374571042 562.3822489406965 702.2996234819921 1 1 0
13602 141 12 0 618.3357100654127 562.8774214716215 705.5803183854774 1 1 0
13601 141 2 0 614.756874178476 562.0147285493416 706.3265352760528 1 1 0
13600 141 13 0 614.5096065772324 558.7359959824068 708.8372503245636 1 1 0
16824 174 9 0 625.8036457859407 566.8680673775907 710.7174428104536 0 1 0
16825 174 2 0 622.6218924547113 568.3036004885669 709.023840959926 0 1 0
13647 141 18 0 628.9833285206079 557.1159604084811 697.6984803171911 1 1 0
13646 141 2 0 628.4552785944959 560.3061816731735 695.7657166631031 1 1 0
16856 174 12 0 614.4036857938395 566.4579243668318 699.0539224123828 0 1 0
16855 174 18 0 612.1452482606348 565.4444790785584 701.924263492098 0 1 0
13580 140 12 0 647.6937457299923 567.4781134784712 698.2226495304052 2 1 0
13577 140 9 0 648.4254085654652 565.8394756406116 705.6581017598957 2 1 0
13578 140 8 -0.75 650.3667303041852 568.7415208557761 704.2451390847203 2 1 0
13576 140 2 0 645.9613776334302 563.771747103447 707.4843788034419 2 1 0
13575 140 6 0 647.1417485307522 560.8710930639277 709.7183265419072 2 1 0
13650 141 2 0 632.5855090978374 557.9897445330212 704.9429075669134 1 1 0
13644 141 13 0 633.7777566927979 562.1301429719965 694.1749868267846 1 1 0
13651 141 10 0 633.1676919421408 556.6300723451308 708.4288986149392 1 1 0
13648 141 17 0 632.2737399122382 557.3461075566884 698.5956406021643 1 1 0
13649 141 9 0 632.9534134919245 559.9021655636818 701.6852328328254 1 1 0
13645 141 1 0 630.8666689131466 563.287947292095 696.1090603908862 1 1 0
13565 140 11 0 640.8954640440485 562.280543175278 698.1228632945254 2 1 0
13567 140 17 0 647.7859654197915 559.3710368778318 698.6442388494447 2 1 0
13568 140 12 0 650.195179791845 556.277101939349 697.9148572903026 2 1 0
13566 140 18 0 644.4276496958264 560.8627017451929 697.3755459241838 2 1 0
13564 140 1 0 640.265406868709 565.695829209162 700.1727080802343 2 1 0
13563 140 15 0 636.772475821821 567.034172371614 701.1929356472165 2 1 0
13574 140 10 0 649.2623151404634 558.6858443002858 708.1524429869795 2 1 0
13573 140 5 0.75 650.6162091936606 555.5657571596379 710.2078877024454 2 1 0
13653 141 18 0 636.8996362780763 550.7163680031782 710.1365958556227 1 1 0
13652 141 12 0 634.5216000377416 553.0453227854974 708.9375192168048 1 1 0
16265 168 2 0 555.7113149309256 569.2596862486075 703.1604716806906 1 0 0
16262 168 18 0 550.2955055325635 578.4734158958096 700.979061813807 1 0 0
16263 168 13 0 552.4025542236666 575.1095098132848 701.0346198628863 1 0 0
16264 168 1 0 553.4672241398821 572.5226289882071 703.7192225865476 1 0 0
16261 168 6 0 552.4692266953808 581.77026543876 701.3052920626614 1 0 0
16259 168 15 0 557.7769442140298 582.4674850785328 705.1037281997646 1 0 0
16260 168 15 0 553.9332892492192 583.5262165651271 704.2711101166611 1 0 0
16258 168 12 0 559.0144153939849 584.0343736813015 708.5239983058742 1 0 0
13093 135 8 -0.75 568.9269504145802 572.9657880961844 701.857883951016 -1 5 0
13094 135 4 0 566.3798454624524 574.3336141311582 704.2461621190666 -1 5 0
13095 135 12 0 567.5007909181246 577.3590932282959 706.6206207550733 -1 5 0
16257 168 4 0 562.1286543152578 584.2013600556428 710.2447132305176 1 0 0
15361 159 18 0 575.632734779019 589.136828543915 694.3439012258286 1 0 0
13092 135 9 0 570.3663728882545 569.6346264889851 701.1407822227751 -1 5 0
12864 133 15 0 582.245520313426 573.4952788385591 697.3667414022422 -3 1 0
12863 133 12 0 581.7080295470674 571.7501752777438 700.7428590212425 -3 1 0
12865 133 15 0 583.848648855986 576.7660808647493 698.8328057240743 -3 1 0
12868 133 13 0 579.5947651851959 582.8475786805138 702.067819479002 -3 1 0
12866 133 6 0 582.3067595367725 579.9156783387726 697.7330049200815 -3 1 0
12867 133 18 0 578.8538837315484 579.7016769225506 699.7187576567771 -3 1 0
12862 133 4 0 584.2349217919462 569.9320539596017 702.8136779034922 -3 1 0
12860 133 17 0 587.1626186983357 574.2495882561415 705.6393822337744 -3 1 0
12861 133 12 0 587.130917260215 570.7807322179501 705.3744311859714 -3 1 0
15360 159 1 0 579.5078151415407 589.0921114037124 693.4785715970845 1 0 0
15359 159 9 0 582.9180105892115 588.9461032519574 691.716376793345 1 0 0
15357 159 2 0 587.157960316468 587.8063535608312 695.3705512698449 1 0 0
15358 159 12 0 586.516926541677 588.0959661639855 691.5404217983948 1 0 0
15356 159 20 0 586.6002721581285 589.3372382923268 698.9660991348234 1 0 0
12869 133 1 0 577.3489806046413 583.03625933931 704.9756792448932 -3 1 0
12876 133 12 0 577.8369842434126 578.0560586904587 709.3612967371274 -3 1 0
12875 133 10 0 581.1135587750227 577.0892702285015 707.7106428410044 -3 1 0
12874 133 2 0 584.5387297099413 578.3074022019179 708.3612511271153 -3 1 0
12872 133 17 0 585.2769926382688 584.9636160180497 706.8806581972436 -3 1 0
12871 133 18 0 582.5572319476747 587.682447662198 707.0929420817489 -3 1 0
12873 133 9 0 586.3891147426874 581.2962005044351 707.1316594639683 -3 1 0
12870 133 2 0 579.3641920449795 585.810775112256 706.7986536311473 -3 1 0
12856 133 12 0 597.9054174530977 569.9045704107964 704.5075751833206 -3 1 0
16851 174 2 0 609.1609396004247 570.9513314346037 706.8779063122016 0 1 0
16850 174 9 0 610.0128923693219 572.6680883118016 703.5020131968078 0 1 0
12858 133 2 0 592.8565798800832 572.6614166613241 704.8816206807322 -3 1 0
18119 187 12 0 595.9970981953594 579.5496779936835 699.3039696174819 -2 0 0
18117 187 12 0 591.56993718152 581.9585235016121 702.78598181162 -2 0 0
18118 187 2 0 592.3560430305106 579.9460995741084 699.3224856988941 -2 0 0
18120 187 17 0 598.7728185769784 578.2620761911904 701.5065352077124 -2 0 0
18121 187 2 0 602.4398828976648 579.124216616175 701.4791860015769 -2 0 0
18130 187 2 0 602.1807037555377 584.9852616241134 690.7197664565625 -2 0 0
18115 187 18 0 594.8241241761749 586.9541582566345 704.228113097621 -2 0 0
18125 187 18 0 605.9623806115522 583.2312283972195 697.7046884508744 -2 0 0
18122 187 15 0 605.0451753126499 577.0105961197972 699.5442303554171 -2 0 0
18123 187 1 0 606.4644108844493 577.2311812998439 696.0980224174 -2 0 0
18124 187 11 0 608.307335853921 580.3415480050585 696.4240898278229 -2 0 0
12857 133 12 0 596.497949743542 573.2761221674604 705.5948439080831 -3 1 0
12859 133 14 0 590.317562213275 575.5493859884905 703.9273252734515 -3 1 0
18126 187 17 0 602.8354130393151 585.7578623703921 697.8173007005421 -2 0 0
18116 187 18 0 594.7256994685409 583.0015499060981 704.3281797632835 -2 0 0
16809 174 12 0 607.506706057561 579.7980350769835 708.5866625830171 0 1 0
18127 187 12 0 599.5047307581071 585.5092857661414 697.6420471496069 -2 0 0
18129 187 15 0 598.4159964145076 584.3176112385233 690.6506541933849 -2 0 0
18113 187 10 0 591.8093493052027 587.9043642769124 709.4917912182884 -2 0 0
15328 159 20 0 598.4472238315551 583.8818017118547 710.2819180392117 1 0 0
18128 187 18 0 598.8301775890342 586.5272426377527 694.1039319817093 -2 0 0
16808 174 6 0 604.4057563855996 579.9051639962806 710.5788212956712 0 1 0
15329 159 17 0 600.4973064818591 586.6260151128122 708.5779977963823 1 0 0
16858 174 12 0 618.9970527331332 572.0441948771577 699.8454659499946 0 1 0
16859 174 17 0 618.8956214447475 575.4414848437767 698.9227218746049 0 1 0
16827 174 9 0 618.9362590146558 572.9993949374116 708.0351935908675 0 1 0
16826 174 1 0 619.5684159289187 570.0523145185764 710.652498323993 0 1 0
16810 174 12 0 611.2282055797418 579.4691882426118 709.7044783343187 0 1 0
16860 174 2 0 619.1767036440002 579.0487599426582 698.5656818101627 0 1 0
16849 174 17 0 613.9437971421237 574.4784752956972 703.336061526373 0 1 0
16847 174 2 0 619.0315886094526 578.451195669718 705.5028370950826 0 1 0
16848 174 18 0 615.56670036557 577.5638340216 704.5956183387659 0 1 0
16846 174 1 0 621.2186152585973 581.3286430465229 705.2310900524236 0 1 0
16845 174 13 0 622.9204887937775 584.2127906256007 703.5508617995923 0 1 0
16844 174 18 0 626.4064132494764 586.3139654715856 702.7878266871178 0 1 0
16843 174 6 0 628.140796526414 584.3199875816991 700.085836984258 0 1 0
16829 174 12 0 624.0798745201637 576.7770234354075 710.7820237019586 0 1 0
16828 174 2 0 620.6811950335299 576.4115540351386 709.8945506715469 0 1 0
16831 174 13 0 629.1690406887877 580.0998411197538 707.8003551414753 0 1 0
16861 174 15 0 620.5407805755056 582.2925153923906 697.6622838078022 0 1 0
16863 174 11 0 622.6968342562842 581.3261169376744 692.0082816004606 0 1 0
16862 174 1 0 623.5772768873976 582.1887567948149 695.5552357168947 0 1 0
13579 140 4 0 649.8368630495684 569.61436619714 700.635248586482 2 1 0
13559 140 2 0 630.9846819867826 573.0884937729479 709.8179039843488 2 1 0
13562 140 2 0 635.8672932079697 570.1671610447981 702.5528007537828 2 1 0
13560 140 12 0 632.8211571231792 572.9855220712736 706.5467407350591 2 1 0
13561 140 17 0 633.0231595824911 569.4305569876992 704.7154745651736 2 1 0
16833 174 12 0 635.952431943358 579.4773589212141 704.8649077074083 0 1 0
16832 174 17 0 633.1777364405431 579.8432235836042 707.2164843820156 0 1 0
16842 174 15 0 631.1172772881408 585.2537982158798 698.0709466396033 0 1 0
16841 174 15 0 632.5211176382187 588.0783009468498 699.9935415794552 0 1 0
16834 174 12 0 637.7429573622735 582.5990145908577 703.441596054351 0 1 0
16836 174 14 0 642.0424618599358 587.9299005508259 702.3820014669323 0 1 0
16835 174 2 0 640.4445161572053 584.8344853882711 703.9614547964663 0 1 0
17890 185 6 0 634.0114012762799 587.1859002198524 708.5730821762737 -2 -1 0
15395 159 9 0 640.170881035623 583.5945958560978 709.1950505861493 0 0 0
18331 189 8 -0.75 562.693228027422 593.0110889932333 707.0469687763416 0 2 0
18332 189 4 0 566.5399594537629 592.379151406074 706.1407628849436 0 2 0
18333 189 12 0 568.9808069638798 594.9085592391314 707.5981963248554 0 2 0
17905 185 12 0 550.3748989610109 592.6018254796081 704.0130404138001 -1 -1 0
18330 189 9 0 561.5374854410451 590.8562933950067 709.7430400034766 0 2 0
17857 185 17 0 553.527380032615 598.7841791722976 695.4293736543807 -1 -1 0
17856 185 12 0 549.8346032891255 599.7245496369549 694.4315737990862 -1 -1 0
17858 185 12 0 557.313707253156 597.7535187625473 695.0673128315138 -1 -1 0
17862 185 18 0 554.3790224679266 600.0714522779891 701.2690990728539 -1 -1 0
17859 185 20 0 559.8990530644645 595.596759636119 696.642110735536 -1 -1 0
17860 185 2 0 559.464057309527 597.3116444907214 700.1512878390466 -1 -1 0
17861 185 9 0 557.5773636340002 599.1427668601597 702.9305787373451 -1 -1 0
17906 185 4 0 548.9238260631776 594.7117993007162 700.9560417300216 -1 -1 0
17863 185 12 0 550.8997723981656 601.7506631711656 700.5205657191786 -1 -1 0
15382 159 17 0 555.8602506469258 595.7655473006022 710.1636001895656 1 0 0
15362 159 17 0 574.4268819048182 590.8374234326741 697.7707245515896 1 0 0
15363 159 2 0 572.0594149526542 593.8226931960845 697.6967228399373 1 0 0
15367 159 18 0 572.6101520555691 600.2384211958397 704.2587299166518 1 0 0
15366 159 10 0 570.7799590919815 602.0976228449431 701.4618365694454 1 0 0
15370 159 2 0 576.7645780245076 595.4551306503979 708.1973178445658 1 0 0
15368 159 6 0 574.3632029820737 597.0003227798148 703.6313819456097 1 0 0
15369 159 9 0 577.9695930932262 595.4674460121622 704.8283190822641 1 0 0
15353 159 6 0 584.6295051245173 598.6297732730944 698.5119997643254 1 0 0
15355 159 12 0 583.6776793021853 591.7467908927866 698.6258132937079 1 0 0
15354 159 12 0 584.2813868684214 595.1617481382226 699.7755080233319 1 0 0
15340 159 18 0 586.0683109406067 599.3341490301602 705.2683137356263 1 0 0
15364 159 13 0 569.2741152467114 596.4533973388005 697.7871806257677 1 0 0
15365 159 12 0 571.7461758059064 599.3069349741917 698.3599628925479 1 0 0
15342 159 18 0 588.2639235346861 604.815258921958 703.1237598908039 1 0 0
15341 159 12 0 584.9797113880869 602.6594374525987 703.9123261912664 1 0 0
15352 159 17 0 587.0269149587115 601.7352686104838 698.3505050745096 1 0 0
15339 159 9 0 587.1607383097047 596.5226267252958 707.3087515622669 1 0 0
16786 174 10 0 605.5409836205729 593.9411763765121 708.7552975286268 0 1 0
15350 159 9 0 592.8898857943751 603.5649668942026 697.0131587720193 1 0 0
15351 159 2 0 590.7010676713461 600.326747568254 697.6365014186853 1 0 0
15349 159 13 0 595.9209203037458 605.6629048279372 698.0410068435681 1 0 0
15338 159 2 0 590.8306992756877 598.1709253089168 707.6593642287282 1 0 0
18114 187 12 0 592.8918423124354 589.3984265696307 706.4337029648835 -2 0 0
16783 174 20 0 607.1638357140523 598.5295780422865 701.3938414152196 0 1 0
16782 174 1 0 608.6702298897601 602.018001618175 701.5815880372392 0 1 0
15347 159 2 0 600.4948434840852 608.0702670188892 702.684669953803 1 0 0
15348 159 12 0 599.19014065212 606.07287549559 700.2484748844383 1 0 0
16785 174 18 0 607.6890389062393 594.937815529013 705.7310444792738 0 1 0
16784 174 17 0 605.8215665223944 597.991896763259 705.0304330818692 0 1 0
15343 159 9 0 590.6327614964563 607.7906088026529 703.2290943586866 1 0 0
15344 159 2 0 593.0607831593572 606.7638554199677 705.7575772788484 1 0 0
15345 159 12 0 596.068503205185 609.4947393597158 705.811535342417 1 0 0
17092 177 13 0 623.3292302373231 589.7005328149403 709.8327597269531 -2 1 0
17091 177 12 0 620.1879197997878 589.4204703111991 707.5422681105135 -2 1 0
17089 177 9 0 617.2172322218158 593.0612638478154 703.020106004754 -2 1 0
17090 177 2 0 619.1904655204579 590.286819167917 704.2404331425682 -2 1 0
17095 177 13 0 624.5089439208434 596.5858985771649 701.8207263214554 -2 1 0
17094 177 12 0 625.6439059735545 593.9786285334111 704.4190992295534 -2 1 0
17093 177 2 0 625.6648080526712 591.3248653852836 707.1382207348428 -2 1 0
17088 177 18 0 616.7435648870023 595.864784841844 705.6415961824323 -2 1 0
17096 177 9 0 626.7351896306322 598.5734357895302 699.4416825823563 -2 1 0
17097 177 2 0 629.5712263679002 599.6585672319218 701.9124252676264 -2 1 0
17870 185 12 0 630.2972050591411 607.6714763191547 697.0346420808389 -2 -1 0
17884 185 17 0 626.4373759831874 597.9549410550304 710.2289920636815 -2 -1 0
17087 177 12 0 619.6452955109571 598.0746372388662 706.9323577068214 -2 1 0
17086 177 18 0 618.4501572694832 599.3036035567842 710.3523458672199 -2 1 0
16839 174 4 0 634.4136552871769 594.3905101185645 697.8107221628936 0 1 0
16840 174 12 0 631.3786822424901 592.2202376854669 698.4731902786592 0 1 0
16838 174 12 0 638.0385876818601 593.4545418163027 698.3812717608336 0 1 0
16837 174 17 0 640.4270962269143 591.711541317783 701.2564573701584 0 1 0
17854 185 12 0 646.9455984509625 596.649385450433 690.5230417853227 -2 -1 0
17855 185 12 0 648.4421410366849 598.1929625519657 693.9845102107561 -2 -1 0
17908 185 15 0 644.7564127327444 592.629441031665 698.0162404969597 -2 -1 0
17907 185 12 0 647.7764216013856 593.8725273824422 700.1364824750685 -2 -1 0
17909 185 15 0 644.8078731994698 592.1384766213174 694.0873559837582 -2 -1 0
17904 185 17 0 650.1961060370431 591.9269244058484 706.3109139856558 -2 -1 0
17865 185 9 0 646.1864015601927 603.7422208047674 700.7491629106227 -2 -1 0
17913 185 1 0 644.7571691007261 604.176534027734 690.9113999096122 -2 -1 0
17911 185 18 0 641.8369378241615 598.5245404178834 693.4130401724449 -2 -1 0
17910 185 6 0 642.3170437179961 594.9515224672131 692.8816232414177 -2 -1 0
17912 185 13 0 641.8699507506126 602.2450879175888 692.4890179520083 -2 -1 0
17098 177 17 0 633.259600998348 599.023551645263 701.5237195284242 -2 1 0
17867 185 12 0 639.9073063350477 606.0784512058189 700.7776377501159 -2 -1 0
17864 185 18 0 649.6190561764024 603.0589795348262 699.4814045898236 -2 -1 0
17866 185 2 0 643.1077913015126 604.0973994328483 699.3955936307647 -2 -1 0
17869 185 2 0 634.1825348737555 608.0345865637659 696.6811410408113 -2 -1 0
17868 185 13 0 636.7630805491177 606.046670367082 698.772592215252 -2 -1 0
17894 185 9 0 639.7317741673091 598.1392496997986 709.7539781662318 -2 -1 0
17893 185 1 0 637.8319897177497 596.5610744901202 706.571127670254 -2 -1 0
17099 177 6 0 634.5321635487725 601.3449932914535 704.3543517917425 -2 1 0
17891 185 9 0 633.3446414210151 590.8276464416725 707.2482947332383 -2 -1 0
17892 185 2 0 634.5708709402115 594.2374055580779 706.7276549453793 -2 -1 0
17100 177 12 0 634.2471462519501 603.9421332362891 707.2775698417977 -2 1 0
17903 185 14 0 649.8217392347269 592.6687300256591 709.8967219706298 -2 -1 0
17898 185 13 0 647.8879291255462 601.5196526972238 710.0870989824703 -2 -1 0
17896 185 12 0 645.2838209370767 596.5307726031556 706.0404824155075 -2 -1 0
17895 185 2 0 643.5620283412125 596.8764083879784 709.2046348549188 -2 -1 0
17897 185 6 0 646.8861936010644 599.9338378423417 706.6911600548166 -2 -1 0
17101 177 12 0 633.2166922103668 605.696986346406 710.3171382845309 -2 1 0
13513 140 20 0 562.5239788583856 556.2884215221073 721.7781791298437 3 1 0
16271 168 12 0 555.9780098820579 557.9574376245558 711.2757460383485 1 0 0
16272 168 18 0 556.5472135164587 559.3458668176891 714.5737736805805 1 0 0
16273 168 18 0 556.1250726039891 556.8771455566106 717.3220889791005 1 0 0
16274 168 12 0 558.1544134452471 553.4523117079466 718.2609790778359 1 0 0
16275 168 2 0 557.535597654323 550.7452070393867 715.8599133948691 1 0 0
13521 140 13 0 556.3379464896306 567.852180409001 720.9572854019234 3 1 0
13514 140 2 0 559.4679879177266 556.5251683521458 723.2158208122452 3 1 0
16241 168 6 0 567.2024798501614 560.536693839874 717.5041285840646 1 0 0
16240 168 18 0 563.9502590221989 561.8521201002329 716.6770794288296 1 0 0
16239 168 10 0 564.1965720861702 559.5444255270503 713.3438532504716 1 0 0
16238 168 12 0 567.5862382131808 558.7779409830795 712.0403596217448 1 0 0
13515 140 12 0 559.195998808294 557.4337821770871 726.8897507778144 3 1 0