LAMMPS data file via write_data, version 8 Apr 2021, timestep = 11390002

6208 atoms
40 atom types
6144 bonds
1 bond types

548.8454457994151 651.1545542005849 xlo xhi
548.8454457994151 651.1545542005849 ylo yhi
548.8454457994151 1265.009204607604 zlo zhi

Masses

1 131.199997
2 57.0499992
3 128.199997
4 101.099998
5 156.199997
6 71.08000180000001
7 115.099998
8 129.100006
9 163.199997
10 99.0699997
11 113.199997
12 128.100006
13 186.199997
14 147.199997
15 87.08000180000001
16 137.100006
17 114.099998
18 97.1200027
19 103.099998
20 113.199997
21 131.199997
22 57.0499992
23 128.199997
24 101.099998
25 156.199997
26 71.08000180000001
27 115.099998
28 129.100006
29 163.199997
30 99.0699997
31 113.199997
32 128.100006
33 186.199997
34 147.199997
35 87.08000180000001
36 137.100006
37 114.099998
38 97.1200027
39 103.099998
40 113.199997

Bond Coeffs # harmonic

1 9.6 3.81

Atoms # full

16286 168 15 0 612.5093520351231 600.8392011439367 625.4263121681284 -2 -1 0
16284 168 12 0 616.9028938490876 604.7752838445537 627.9937820732423 -2 -1 0
16289 168 5 0.75 611.8169158599999 609.9248769281337 620.1872066978168 -2 -1 0
16288 168 9 0 610.5820609303378 607.5982099855444 623.1602341411168 -2 -1 0
16287 168 2 0 610.6123120044394 604.5214072074788 625.4551203485014 -2 -1 0
16285 168 18 0 613.3738257608964 602.6636985800686 628.4567538601871 -2 -1 0
16283 168 17 0 619.0603090229461 606.8406581521501 630.8560253008732 -2 -1 0
16282 168 18 0 620.1415934904803 604.8501482467577 633.6410778439769 -2 -1 0
16278 168 2 0 626.2998463593038 602.1835153389204 641.1308669888283 -2 -1 0
16281 168 11 0 622.8454778581435 604.6880450814807 636.4204619417131 -2 -1 0
16280 168 1 0 624.3657239485179 601.1732075555262 635.8438495177388 -2 -1 0
16279 168 15 0 625.8992981366313 599.2225523163868 638.9401249940441 -2 -1 0
16277 168 17 0 629.9518044666561 600.9770755254863 642.374641975901 -2 -1 0
16975 175 12 0 616.1619729036255 597.4770591581308 648.0423448512174 1 1 0
16276 168 12 0 632.9313752154801 600.9953962668342 639.9012895269842 -2 -1 0
16275 168 2 0 636.1462996520684 601.0659197547445 641.9974837923716 -2 -1 0
16273 168 18 0 634.6083922160403 604.1462804687884 645.4940446366088 -2 -1 0
16274 168 12 0 636.4422776086477 600.7045183436385 645.7181252471498 -2 -1 0
16272 168 18 0 631.17776897569 604.1933392833075 647.1294700700909 -2 -1 0
14740 152 2 0 605.9959884811915 561.8196276389148 665.2256465644612 0 1 0
14741 152 9 0 608.944019445047 563.5362211107521 663.4153696718237 0 1 0
14870 154 12 0 597.2631764452273 549.9508756682329 662.3697291239909 -1 1 0
14872 154 2 0 600.3418520190422 551.7405683378313 656.688140508787 -1 1 0
14871 154 20 0 597.517224068641 551.3157867446413 659.1040625039491 -1 1 0
14729 152 11 0 610.2890126510255 558.4278450407207 654.9941202501824 0 1 0
14726 152 2 0 614.3453676900308 567.5306191563152 656.3209644630792 0 1 0
14727 152 15 0 613.5532953271439 564.8703707161179 654.1518060797315 0 1 0
14733 152 18 0 617.5765534464387 551.919539812012 658.240581727659 0 1 0
14734 152 15 0 618.5374037289315 553.9660306409714 661.4615842104739 0 1 0
14730 152 18 0 612.9800093546812 555.607990909921 653.4122488591054 0 1 0
14731 152 17 0 616.6019860990058 556.2913353282692 653.8577609716144 0 1 0
14732 152 12 0 619.3544303515246 554.4963030459808 655.9351642356443 0 1 0
14728 152 1 0 612.493175995145 561.3596864559441 653.9530727529861 0 1 0
14736 152 9 0 615.8331643022225 556.4384423706872 665.9218857257985 0 1 0
14735 152 2 0 619.2530680354644 556.6085914805903 664.4482480480916 0 1 0
14743 152 4 0 615.047865146529 564.1679130224928 660.6394292307624 0 1 0
14742 152 8 -0.75 612.6124747496474 562.7549144149137 662.9544537806865 0 1 0
16886 175 12 0 625.1043876607655 551.1695439281289 651.7008699952663 1 1 0
16885 175 12 0 628.8945928006339 552.1228802114839 652.8023739174744 1 1 0
14744 152 12 0 618.9652360811642 564.7071802502571 660.3671146805292 0 1 0
16621 172 1 0 628.7205157807928 550.5868327103227 666.6290790454019 2 2 0
16620 172 9 0 625.2046138513523 550.9195269663928 667.1001052232746 2 2 0
14876 154 18 0 610.509570010834 549.0941550623884 652.3644744963457 -1 1 0
14877 154 17 0 614.277561194961 548.9372181817758 653.8509559754541 -1 1 0
16899 175 2 0 612.0385516603188 551.3615641387672 666.2516510171863 1 1 0
16887 175 17 0 623.0599691387596 550.4296349920523 648.8561575433091 1 1 0
16880 175 20 0 641.1554879575344 553.8352358061605 656.0070431719002 1 1 0
16881 175 17 0 641.822560297459 552.3220348640164 652.3512655986937 1 1 0
16879 175 1 0 638.7776875354442 556.1083543295111 656.4432515717724 1 1 0
16622 172 18 0 632.1235884348517 551.6086846179809 667.295952295724 2 2 0
16884 175 12 0 630.7145629029734 553.9433698581684 649.9427006508243 1 1 0
16883 175 10 0 634.2239351822866 555.019975712321 650.4434719465198 1 1 0
16337 169 18 0 650.0516126813199 549.256283662427 667.7549657122921 -3 -1 1
16882 175 18 0 637.9059607481287 553.4493496946951 651.0654650523159 1 1 0
15500 160 12 0 553.2361157859218 577.164275922467 664.443246955877 2 3 0
15502 160 2 0 548.9659744991694 576.662107287388 667.7216106635708 2 3 0
15497 160 18 0 551.9866062785163 587.6037289927543 663.4481375082859 2 3 0
15498 160 12 0 550.3819776040299 583.9714561536886 664.0463277346182 2 3 0
15499 160 2 0 551.7708052270369 580.5478855950738 663.5228393919944 2 3 0
14723 152 2 0 609.8627705308886 570.2590244479965 661.8274086891369 0 1 0
14722 152 12 0 606.4085913684694 572.752272336649 662.2591184398236 0 1 0
14721 152 18 0 607.1691136481882 573.8442124554704 665.5285701166373 0 1 0
13566 140 18 0 607.6726873504388 583.0668640577574 665.1099691865115 -5 2 0
13564 140 1 0 604.5088298112373 589.8671846883382 666.5243948629065 -5 2 0
13565 140 11 0 606.5220021419533 586.8723611811155 664.5687162805922 -5 2 0
13869 143 8 -0.75 626.8180189867694 581.1349170891722 653.7167114698764 -2 -1 0
13871 143 12 0 625.7128446255929 587.0858475137677 649.7941104398622 -2 -1 0
13870 143 4 0 625.090606157767 584.3195025023438 651.9882985801345 -2 -1 0
14725 152 17 0 614.2809474659811 570.850310253901 657.9630715942722 0 1 0
14724 152 12 0 613.3978016542014 569.9719748154915 661.4450635230139 0 1 0
16919 175 18 0 616.1745591206876 582.3296705743063 654.7904335940592 1 1 0
16972 175 9 0 621.4721022788578 589.8721039162921 653.9634540856844 1 1 0
13866 143 6 0 629.6309333821431 583.2618563689501 663.7792867511715 -2 -1 0
16922 175 2 0 613.2828102497975 586.5596206903476 663.0808427386685 1 1 0
16921 175 9 0 613.3616279881302 583.3181330528793 660.865224718716 1 1 0
16918 175 10 0 618.3627086756366 584.9148555296405 655.5253552713517 1 1 0
16920 175 6 0 615.5742396746055 581.2307800130039 658.3033512479393 1 1 0
16916 175 13 0 620.7162021765292 585.7321238753555 662.6378645263045 1 1 0
16917 175 12 0 620.2345700708124 584.8115461590911 658.9723319755902 1 1 0
16915 175 2 0 618.1448353353336 583.6560131460584 664.625902668059 1 1 0
16912 175 1 0 619.7773755889915 574.0925805962169 666.328148483913 1 1 0
13868 143 9 0 626.2473636091464 581.6635734956617 657.3109328511016 -2 -1 0
13867 143 2 0 628.5173711238272 582.4251888205423 660.3276606302546 -2 -1 0
16914 175 17 0 618.8343560734754 579.8268057105113 663.8308628967582 1 1 0
16913 175 18 0 621.6742568291743 577.3456414763849 665.171802926414 1 1 0
13861 143 15 0 628.7368173653896 571.5263397665286 662.9529228832287 -2 -1 0
13863 143 9 0 632.3187917142428 575.6422271423635 660.1451674361919 -2 -1 0
13864 143 5 0.75 633.1045059402312 578.8502697484493 661.1991402149645 -2 -1 0
13865 143 10 0 632.0670542405184 580.4200802677635 664.598566224338 -2 -1 0
15504 160 1 0 645.7677760148495 579.4373411468109 664.3607126642836 1 3 0
15505 160 11 0 646.6967318700728 581.2471581403653 660.9255087699415 1 3 0
15506 160 18 0 646.9223834169895 582.0729415924322 657.2545999779146 1 3 0
15503 160 15 0 648.4418089392758 576.3230569496692 665.1808748923719 1 3 0
13862 143 2 0 631.961833739141 572.0344446848645 660.6820384258305 -2 -1 0
15512 160 9 0 637.6134598531135 588.0142851383198 656.732759089985 1 3 0
15511 160 2 0 636.6406373103656 586.1572822152419 653.9370528762304 1 3 0
15507 160 17 0 643.4998840221238 582.0380039370856 655.1225615797053 1 3 0
15508 160 12 0 640.9754091468868 582.615405540494 657.5493641110453 1 3 0
15513 160 5 0.75 637.7020858499966 588.4433855385575 660.622144008735 1 3 0
15509 160 18 0 637.4529511424251 581.2421744763254 657.624258698006 1 3 0
15510 160 15 0 636.1936972941969 582.4100635408852 653.9500528361386 1 3 0
15514 160 10 0 639.9081877437233 589.8511253762576 663.3485475408028 1 3 0
13859 143 12 0 634.1888895237711 574.4281311183189 666.163482495304 -2 -1 0
13860 143 18 0 630.7743569917823 572.5880115060032 666.0430101089829 -2 -1 0
15495 160 12 0 552.8632967486265 594.8833927785186 665.875418407564 2 3 0
15491 160 17 0 559.0185871305664 595.1435775440532 661.9977207339072 2 3 0
15492 160 9 0 559.7405106811434 591.4892034562291 662.7445000901893 2 3 0
15493 160 2 0 558.7891635008654 592.1078578938527 666.0842596739525 2 3 0
15496 160 18 0 552.121269700248 591.1777351027632 664.5086201014813 2 3 0
15494 160 10 0 555.9150195654105 593.9617666972264 667.7277522938978 2 3 0
15490 160 18 0 561.373660706933 596.7596826793041 659.0144742180865 2 3 0
15489 160 2 0 562.1774393023267 600.7561420245019 658.3325090538469 2 3 0
15487 160 13 0 561.9050346203492 606.6168381769143 659.7514682576218 2 3 0
15486 160 18 0 564.427142838874 608.9151103766983 661.4988398637304 2 3 0
15488 160 1 0 564.3491387156557 603.4981347795641 660.3261979038026 2 3 0
15485 160 6 0 567.7619247046179 607.9575976345097 660.0569305236519 2 3 0
16312 169 18 0 552.3304724346684 603.3232967599713 658.9560952704317 -2 -2 1
16314 169 2 0 555.1326434029088 601.5496494760073 654.0886450105446 -2 -2 1
16313 169 9 0 553.2356840287662 600.0579538212208 657.1420661561974 -2 -2 1
16317 169 2 0 560.129402735139 607.0632278855777 650.5951829623455 -2 -2 1
16315 169 12 0 555.3606926372969 604.1301063536683 651.6284852071606 -2 -2 1
16316 169 13 0 557.714923927337 605.0155344314913 648.8207713773171 -2 -2 1
16311 169 12 0 549.4252628930076 605.7739784656552 658.6965729530682 -2 -2 1
16319 169 13 0 564.2023031501652 610.4145663510338 654.1006535849341 -2 -2 1
16318 169 12 0 562.9253812702173 609.6840886238296 650.4939608593389 -2 -2 1
15484 160 15 0 571.1114408800095 610.0220203243616 660.2763671489405 2 3 0
15483 160 15 0 573.4434400166554 607.0452527862366 660.9551235388032 2 3 0
15482 160 12 0 577.1219614937163 607.827385740656 662.051732721035 2 3 0
13563 140 15 0 600.8947288217893 590.7714657251695 667.2940597420725 -5 2 0
16925 175 2 0 613.9863620344524 597.2527038345786 664.8558465933909 1 1 0
16924 175 9 0 615.4966913817235 593.7445636992926 665.1255290053696 1 1 0
16970 175 6 0 626.0809477591984 592.605416911516 658.0832449348406 1 1 0
16969 175 10 0 622.8823088358321 592.133754557209 660.415400652862 1 1 0
16974 175 4 0 618.8286406907941 596.0551323765148 650.6194135693668 1 1 0
16971 175 2 0 624.8568510466677 590.2264682865862 655.2169125095386 1 1 0
16923 175 1 0 614.0634714977372 590.5146292491935 664.0024124540304 1 1 0
16968 175 5 0.75 623.5468505080786 593.6672171069491 664.1498204829456 1 1 0
16926 175 12 0 611.4822191153394 598.7998759651638 667.0394641451015 1 1 0
16973 175 8 -0.75 619.9424676919548 592.7485771748774 652.4910105506558 1 1 0
16268 168 9 0 624.9298200241719 598.9901957113443 657.1859735588347 -2 -1 0
16267 168 17 0 622.2900638775164 601.2624712299256 658.847362896617 -2 -1 0
16269 168 2 0 628.2421811772641 598.5197289817519 655.1459490962626 -2 -1 0
16265 168 2 0 623.8830416484055 603.8714601831928 663.3991670052912 -2 -1 0
16266 168 18 0 623.5733130570572 604.8856957533311 659.2616979638278 -2 -1 0
16264 168 1 0 627.3031623939788 602.151892699751 663.3850379987686 -2 -1 0
16271 168 12 0 629.7340373471675 602.2630920691975 650.5309349640557 -2 -1 0
16967 175 9 0 623.8261586966242 591.8239965268918 667.4708096685722 1 1 0
16263 168 13 0 629.1780079204054 598.7392569563642 663.4731691704562 -2 -1 0
15515 160 6 0 642.961499676244 592.1813925286947 662.6956725813653 1 3 0
15516 160 2 0 640.8708497750845 595.2067524468973 662.6173747158035 1 3 0
16270 168 10 0 631.2287497968754 600.1990865645538 653.37683071238 -2 -1 0
15520 160 12 0 647.6310580465591 594.0283468581862 656.0368592747841 1 3 0
15519 160 4 0 643.9530656364399 592.1608723448951 656.6943640430618 1 3 0
16307 169 20 0 644.0507087152569 599.0403994536019 665.09848778189 -3 -2 1
15518 160 8 -0.75 641.4201333290251 594.7709054331025 657.5455883852568 1 3 0
15517 160 9 0 638.7701590004904 596.3082908723719 659.2318517403229 1 3 0
16310 169 18 0 649.2041265034492 603.0978291698005 657.9818481211067 -3 -2 1
16262 168 18 0 631.8421893595271 599.7450805804966 660.6155401185966 -2 -1 0
16261 168 6 0 635.5401376318 599.881587180267 661.8509471883721 -2 -1 0
16308 169 2 0 646.5768333100635 600.3101972306137 662.5971916980421 -3 -2 1
16259 168 15 0 633.0515072141898 603.1511257456141 666.3039242643958 -2 -1 0
16260 168 15 0 634.8181574666844 603.2837571639342 663.1322949754675 -2 -1 0
16309 169 9 0 647.4905559071757 600.1039503546298 659.2051072690057 -3 -2 1
16339 169 9 0 549.5846912443898 552.3488953939535 672.7690657296441 -2 -1 1
14272 148 9 0 568.1662566039548 569.0517619454066 687.523563580205 0 -1 0
14265 148 12 0 566.593147873879 559.8601847487962 687.53770777174 0 -1 0
16340 169 2 0 549.1134596275162 551.7298960766574 676.5270121962219 -2 -1 1
14704 152 12 0 589.5440695130226 567.2106125038573 683.3735034213223 0 1 0
14702 152 14 0 583.4744168685293 568.0916981282088 685.5917414836888 0 1 0
14703 152 17 0 586.7123773148661 566.018102973466 685.6296401363692 0 1 0
14739 152 6 0 607.7259395542511 560.457617120766 668.4638010342813 0 1 0
14712 152 1 0 595.2727588241902 564.6521641386076 675.9398113413199 0 1 0
14713 152 2 0 596.1821335070861 563.4356330067803 679.0995505784434 0 1 0
14715 152 17 0 601.1005532355364 566.8974987841789 681.1188507167105 0 1 0
14714 152 18 0 599.6820557557166 564.3718244763542 678.672291675759 0 1 0
13801 143 6 0 605.2925695018016 553.7583705951381 683.3493647784979 -2 -1 0
13802 143 12 0 601.7522480479151 553.4242210055849 681.5202377296758 -2 -1 0
13804 143 20 0 597.3604869884497 554.5602808487425 675.5930786784431 -2 -1 0
13803 143 12 0 598.8599722070032 553.2808857079472 678.9891882410602 -2 -1 0
13806 143 12 0 602.1985603240712 557.8817838807919 675.8201202579429 -2 -1 0
13800 143 17 0 608.6956610905188 553.6742557615712 681.5599244475268 -2 -1 0
13805 143 2 0 599.9017552480267 555.6321316164826 672.9936756479455 -2 -1 0
13807 143 9 0 605.6623739326259 559.18229742714 676.795245775433 -2 -1 0
13798 143 9 0 609.9545574633862 557.3488568916683 687.0234957358128 -2 -1 0
14711 152 13 0 592.7943263852678 566.9130203846564 674.2142627872008 0 1 0
13808 143 1 0 604.9423495341815 561.4028860765999 679.7223360361098 -2 -1 0
13809 143 18 0 607.9454608858293 562.8012519764316 681.6667405528892 -2 -1 0
13810 143 17 0 606.2397353096176 566.1367082358602 683.0422751676043 -2 -1 0
13811 143 2 0 606.406442836802 568.8964793243116 685.3286061852592 -2 -1 0
14738 152 10 0 611.1286446212724 560.7610049222674 669.9655888207467 0 1 0
14737 152 5 0.75 614.384562101428 558.1200023032764 669.3759907066459 0 1 0
16907 175 12 0 618.2089740120489 560.9779162043855 674.4797927622903 1 1 0
16906 175 12 0 617.9255750242204 560.2209728605739 678.0134755943642 1 1 0
16908 175 20 0 618.5484788747887 564.387692404127 672.9421692719324 1 1 0
16909 175 2 0 616.0601076099949 567.4984663884833 671.9799083430416 1 1 0
13799 143 2 0 610.5894751493581 556.2205912987394 683.1357150931996 -2 -1 0
13797 143 13 0 612.7417209069994 560.0896836714902 687.2633691768733 -2 -1 0
13795 143 2 0 613.7502464222904 566.4128199118873 684.018739416719 -2 -1 0
16903 175 2 0 613.3020461705298 552.5315513054773 678.9776256486143 1 1 0
16905 175 6 0 616.602663962386 557.1393183557271 679.6160715747983 1 1 0
16904 175 17 0 616.1352726237171 554.0845061674034 681.1071292128877 1 1 0
16901 175 13 0 614.0635854786632 551.556755708411 673.1513394438396 1 1 0
16902 175 9 0 612.4399496104868 550.1948267378422 676.2627699883341 1 1 0
13838 143 13 0 622.7191067724052 550.9547418870892 674.7375328204276 -2 -1 0
13839 143 1 0 625.8835942901278 552.4392269367171 677.0392764167497 -2 -1 0
13788 143 18 0 625.859250090303 568.8156150504691 677.278949419952 -2 -1 0
13796 143 12 0 614.4207156729846 562.6350562701261 685.3450826614162 -2 -1 0
13792 143 2 0 620.442916294579 566.5610895332635 685.1447766195796 -2 -1 0
13791 143 9 0 623.8766704593851 565.2372611408848 684.8664525030701 -2 -1 0
13790 143 18 0 623.538004444999 565.7840901437869 680.8013291394531 -2 -1 0
13789 143 12 0 622.06735225169 568.2576139331579 678.3306986345452 -2 -1 0
13777 143 17 0 629.0652771067888 559.9376215903155 687.5062174606658 -2 -1 0
13830 143 17 0 614.9869165668216 553.1299409247913 687.4640222546755 -2 -1 0
13840 143 2 0 629.3271823137369 554.8707960361828 676.0188094416006 -2 -1 0
13841 143 18 0 630.2255194668421 556.4752657647897 679.1849555880505 -2 -1 0
13776 143 20 0 629.6358096177594 562.7367049347886 685.2444972598768 -2 -1 0
16900 175 12 0 611.9203465022533 551.8211344573477 670.1022330437577 1 1 0
13831 143 12 0 613.5813112201935 550.4228847968473 684.9997144099552 -2 -1 0
16213 168 18 0 621.9725770127811 549.6936205701223 683.9619330084553 -2 0 0
13846 143 12 0 644.2085971776428 561.7796734831369 687.9934650012606 -2 -1 0
13843 143 9 0 636.3326755394497 557.0662766540704 684.1394633037329 -2 -1 0
13842 143 17 0 632.8392166248033 556.7226233327387 682.2428249194407 -2 -1 0
13848 143 18 0 641.922163779177 567.7369603438448 686.4511454111139 -2 -1 0
13847 143 18 0 644.1258902719624 564.7330610120251 685.4949478638304 -2 -1 0
13845 143 10 0 643.2262733024863 558.7168319585983 686.5497504997949 -2 -1 0
13844 143 2 0 639.558812670466 557.3920589408768 686.5451883763473 -2 -1 0
16628 172 18 0 635.1761649833231 550.9222109121479 685.2858599936023 2 2 0
16627 172 10 0 634.701636155439 550.9389592465252 681.3571559352824 2 2 0
16623 172 17 0 633.3220277876643 551.0673808011809 670.810690959858 2 2 0
13775 143 1 0 630.7475689595349 562.7298242279835 681.8074864802728 -2 -1 0
13784 143 12 0 632.7989734620901 569.131981694015 687.6408513570694 -2 -1 0
16625 172 13 0 637.5495513205314 555.9520602710053 675.580196465416 2 2 0
16629 172 6 0 638.8245327452175 551.6506947604364 686.1367448160038 2 2 0
16624 172 2 0 635.3737081913446 553.7387221711035 672.8780732928205 2 2 0
16626 172 12 0 636.4919052710143 553.1583546721844 678.3974782753854 2 2 0
16630 172 9 0 642.1239167181789 551.5048117854171 686.7202113484926 2 2 0
16338 169 6 0 649.6618516481229 553.1867324606737 669.443334907309 -3 -1 1
15501 160 17 0 552.783073559155 576.2556610160821 668.1461048533771 2 3 0
14709 152 6 0 589.257307683494 572.6463502686928 672.5561003853273 0 1 0
14708 152 15 0 587.9683151760934 574.0713663894999 675.9162721360333 0 1 0
14707 152 15 0 587.3907075424081 575.3346428936408 679.550485528456 0 1 0
14683 152 17 0 589.7009026269996 589.8744159639456 683.9422505868803 0 1 0
15979 165 10 0 571.6637873886341 589.933119203619 682.0884161580581 -1 -2 0
15980 165 12 0 570.0826909024855 588.2681145646229 685.1816846102788 -1 -2 0
15981 165 18 0 569.6132443445745 585.8522542272688 687.8211012716112 -1 -2 0
14694 152 2 0 583.0303520123206 584.0619514704696 686.396405962932 0 1 0
14695 152 12 0 581.2561660679086 587.2167047764491 687.6907555717137 0 1 0
14696 152 6 0 578.9044676052148 585.5139637460538 685.1181044258614 0 1 0
14698 152 17 0 575.7051464052181 580.2093123231145 683.8778828621034 0 1 0
14697 152 13 0 575.8076465357822 584.0376354753832 683.3182182457622 0 1 0
14699 152 12 0 576.4324176377467 576.5321378972786 683.4056566245135 0 1 0
14701 152 2 0 581.7943837120708 571.0797235095284 683.9972264766994 0 1 0
14700 152 12 0 578.6387061169117 573.0921667230829 683.1372501909223 0 1 0
14693 152 9 0 582.509346436776 580.5891308581279 684.9811729777222 0 1 0
14718 152 10 0 606.7520364533963 569.6606023996839 673.8216939116863 0 1 0
14717 152 2 0 605.5732439972563 570.4702045123934 677.2869491326711 0 1 0
14720 152 18 0 605.183483832547 574.7967047000002 668.9262739683008 0 1 0
14719 152 12 0 605.9740623684406 572.871315221955 672.0272677115322 0 1 0
14716 152 9 0 602.6389395490023 570.022659792803 679.7440578419704 0 1 0
14710 152 18 0 590.9219077394397 569.8986418504297 675.0911481667663 0 1 0
14705 152 4 0 591.3666721855129 570.8729973776968 683.5338003566694 0 1 0
14706 152 12 0 590.0389391432269 573.7614157598506 681.6165886478443 0 1 0
13572 140 9 0 608.7042525617368 588.0738055935723 682.177181640515 -5 2 0
13573 140 5 0.75 609.0488358817867 587.9518558501127 685.9993529150104 -5 2 0
13567 140 17 0 608.0813770689264 583.0701658318552 669.0466433111117 -5 2 0
13574 140 10 0 606.2423824400845 586.7562443468578 688.0218209180007 -5 2 0
13578 140 8 -0.75 598.31243781625 589.6365542130281 687.595591822947 -5 2 0
13580 140 12 0 597.4042548461937 588.9138983213859 682.0923653671325 -5 2 0
13571 140 2 0 607.0572900147251 585.9450445764347 679.9099347276966 -5 2 0
13570 140 15 0 609.3875198083392 583.4918659034665 677.8248446351407 -5 2 0
13814 143 10 0 609.5766602574249 577.1162090741539 683.5319530815289 -2 -1 0
13575 140 6 0 603.9011157788509 584.4668754632393 685.8435653880646 -5 2 0
13812 143 13 0 607.6370472609286 571.8444200193991 687.629533821583 -2 -1 0
13813 143 12 0 610.1702022551975 573.7962432860384 685.0192950333492 -2 -1 0
16910 175 12 0 615.2011720468616 569.4793422681041 668.8757779503867 1 1 0
16911 175 9 0 618.0306049607029 572.0135112426391 668.8078862987151 1 1 0
13786 143 2 0 629.8628229508055 569.9536552377497 681.4263061252702 -2 -1 0
13787 143 9 0 629.5746598424239 570.4842474470746 677.6614215961357 -2 -1 0
13794 143 13 0 615.2925201531509 569.6120559888935 682.5642238763368 -2 -1 0
13568 140 12 0 611.5704530268175 583.2278689181217 670.9663803198392 -5 2 0
13569 140 18 0 611.5193147835903 583.1768702623972 674.4712045796191 -5 2 0
13793 143 12 0 618.7984048849178 569.5979511825794 683.7648220673109 -2 -1 0
13816 143 6 0 616.120664337756 580.2371712755552 684.6661543909364 -2 -1 0
13821 143 2 0 621.5756658403039 573.6782794362564 686.6601924007444 -2 -1 0
13820 143 9 0 624.255663609557 574.0220383315449 684.2247008317354 -2 -1 0
13819 143 1 0 624.9233737901098 577.0049652069096 685.8712224922955 -2 -1 0
15526 161 12 0 629.6381077666782 587.3066267340872 687.2887977955415 -3 0 0
13817 143 9 0 619.6751082642854 579.7801380721238 682.9824413708317 -2 -1 0
13815 143 18 0 613.0588143681231 578.7156957552884 683.0951835288796 -2 -1 0
13818 143 2 0 621.6128512548023 579.2399407122867 686.2942935884024 -2 -1 0
15521 161 1 0 630.0173841578923 579.5893007753825 686.3516840592767 -3 0 0
15527 161 12 0 629.8635388194547 589.817663450929 684.2017424123023 -3 0 0
13785 143 20 0 631.5260425981987 570.6838497577108 684.5389506453473 -2 -1 0
13855 143 1 0 633.4414416365677 580.9272672138715 676.5691067584822 -2 -1 0
13856 143 11 0 631.3730657263951 580.6586121689261 673.1929863338452 -2 -1 0
13857 143 18 0 631.8684753686664 579.098743846059 669.6564240958452 -2 -1 0
13858 143 17 0 635.4414594564604 576.8675771415229 669.2300429232162 -2 -1 0
13854 143 15 0 637.0515109619719 580.8899573322802 677.9161415349288 -2 -1 0
13849 143 12 0 640.3012949679013 570.9129188937105 687.6355348524189 -2 -1 0
13851 143 12 0 638.1766073413717 576.3385430616847 683.9215075968023 -2 -1 0
13850 143 2 0 637.5925378092207 572.7707954430663 685.3678835778322 -2 -1 0
13852 143 17 0 638.5421640651888 576.0202614793556 680.3006049579069 -2 -1 0
13853 143 2 0 639.080279151466 578.2499706162176 677.3075811243289 -2 -1 0
14653 152 12 0 552.7472105653599 608.9513320787493 668.5305091081793 0 1 0
14652 152 10 0 556.2529364264233 610.2157952332717 669.275909546161 0 1 0
14650 152 17 0 561.6658412160011 610.343370476552 671.5252713083923 0 1 0
14656 152 17 0 550.3369987684639 604.5666667608425 674.2277999300811 0 1 0
14657 152 12 0 552.1563042561831 606.1557745487722 677.1228374738173 0 1 0
14654 152 12 0 550.2710229505402 610.038446231772 671.3027420647323 0 1 0
14658 152 20 0 551.9971852191273 609.0090137934321 679.2046491427268 0 1 0
15976 165 17 0 566.4128870792688 596.7221341390986 683.3427152112216 -1 -2 0
15975 165 18 0 562.7623206215857 598.2452853093197 683.3587934310668 -1 -2 0
15974 165 2 0 562.5152285250207 600.2791602224034 686.7336520667666 -1 -2 0
14667 152 13 0 550.3429916297046 602.7704216670551 686.1392314326213 0 1 0
14668 152 2 0 553.098040126831 605.2379385397063 685.5178918889388 0 1 0
14669 152 12 0 556.3472914377289 606.4328674613972 687.0218043317076 0 1 0
14664 152 9 0 549.0246726799406 610.3024859299443 687.0377554466888 0 1 0
15978 165 2 0 571.4510503439589 593.2284133934021 680.2241448374623 -1 -2 0
14682 152 18 0 588.5866064311545 593.5466252570903 683.0603730057169 0 1 0
15977 165 9 0 570.1936616474718 596.142920198756 682.0564574445754 -1 -2 0
14680 152 9 0 583.9688629835488 598.9203806968792 681.3546422633938 0 1 0
14681 152 1 0 586.6362069822629 596.2798351370722 681.1605704895437 0 1 0
14679 152 12 0 582.142268307648 598.5386476526307 684.754427773796 0 1 0
14678 152 2 0 578.7625089413146 597.5560862158713 686.055204786692 0 1 0
13547 140 13 0 583.323665123707 606.6049988018285 680.422625568347 -5 2 0
13548 140 1 0 583.21264076748 604.7330592347897 677.5357377224325 -5 2 0
14684 152 2 0 587.5740582438885 590.5264833418244 686.9312020285631 0 1 0
13551 140 17 0 589.7187292097639 599.3650043464678 674.8906190054544 -5 2 0
13550 140 18 0 586.8402922896694 600.2938873720107 673.3287893966716 -5 2 0
13549 140 2 0 583.5870497691279 601.7410950318687 675.1533793016536 -5 2 0
13546 140 18 0 583.289586693683 610.3259707391076 679.1888062182448 -5 2 0
16940 175 6 0 607.5989486760302 605.3057016162148 675.8874258056727 1 1 0
16938 175 15 0 602.6409652127036 600.2317027107601 676.372822106927 1 1 0
16937 175 12 0 601.2303624201145 597.0487862585082 675.0834528595444 1 1 0
16939 175 15 0 605.1244265166863 602.3839553934795 674.0042617273234 1 1 0
13542 140 12 0 590.4647772079561 608.3421704354075 687.0677384309541 -5 2 0
13543 140 15 0 590.5687335843271 609.1447805626902 683.5930987417304 -5 2 0
16941 175 18 0 609.5015577387306 608.3740904447561 675.4199572312259 1 1 0
13579 140 4 0 595.6223678151994 590.0952921348737 685.2006799711569 -5 2 0
13556 140 18 0 596.3873716622686 599.1652954629053 684.2109497505478 -5 2 0
13561 140 17 0 597.9148564789604 590.2324237493461 673.0115155574393 -5 2 0
13560 140 12 0 595.1852513571322 592.7564826257984 674.2157205390944 -5 2 0
13562 140 2 0 600.5181486574444 592.1118851212627 670.8009866441513 -5 2 0
13558 140 12 0 597.2967521140156 594.7090091791839 679.6728401917128 -5 2 0
13559 140 2 0 594.2801853276744 593.3260737446124 678.0845089697447 -5 2 0
13557 140 18 0 598.5025822849251 597.8378308923644 681.2055888712442 -5 2 0
13552 140 9 0 593.6510284408841 599.0598250082719 675.8803817383439 -5 2 0
16934 175 17 0 609.1560185153567 592.7345052515765 677.8790322882601 1 1 0
16936 175 4 0 603.8653485007966 594.8390894513949 676.6312030157133 1 1 0
16935 175 12 0 605.7221906516752 591.3876867553556 676.8617511308385 1 1 0
13555 140 12 0 596.8234998343395 603.1632818363446 683.358589200255 -5 2 0
13554 140 10 0 594.3254318093426 604.0079504147859 681.0417256662306 -5 2 0
13553 140 2 0 593.0821021252851 601.0805338204528 679.2329409330537 -5 2 0
16930 175 12 0 609.7044042838206 601.7413086395081 678.9691601249568 1 1 0
16933 175 14 0 609.3269909334847 594.8428380986248 681.1379741538734 1 1 0
16932 175 2 0 607.1803434650827 597.5054251037111 683.1408294865522 1 1 0
16931 175 12 0 606.4260508599469 600.5205966329224 680.7182452628987 1 1 0
16929 175 17 0 610.231441745601 599.9219693830502 675.9767249121006 1 1 0
15464 160 18 0 601.7475405019597 609.6553670464892 672.0571078444759 2 3 0
15465 160 6 0 602.8630654718311 609.2562360945192 675.8154524220812 2 3 0
15436 160 9 0 604.1116735136148 609.3484795339813 685.9396129035235 2 3 0
16944 175 2 0 620.0445221493598 606.2912360699771 677.5163129451605 1 1 0
15571 161 17 0 622.5350391558436 607.0232408665563 684.2584673393775 -3 0 0
16965 175 15 0 618.672186980729 590.5141506238871 671.6729580355756 1 1 0
16966 175 2 0 622.2733301181711 591.7779391224367 670.8539994478799 1 1 0
16964 175 18 0 617.5464971611805 592.8937581416204 673.9163989277977 1 1 0
16955 175 12 0 622.9016495293771 593.2254209495444 683.5916209538427 1 1 0
16927 175 6 0 613.4848433611287 599.9275211405492 670.1019657612301 1 1 0
16960 175 11 0 613.7479715510641 593.2753790894407 687.2390162236339 1 1 0
16942 175 13 0 613.3855296213407 607.6763751537121 674.8668519659956 1 1 0
16962 175 17 0 615.1084752782372 591.6224050678246 680.8776444561563 1 1 0
16963 175 12 0 616.9211353731778 591.9389696307826 677.5341917355789 1 1 0
16961 175 18 0 615.0388096982208 590.7259481484598 684.5284166636167 1 1 0
16928 175 13 0 612.2783913293874 598.0349934003948 673.2930036131788 1 1 0
16953 175 12 0 625.2504265520284 591.2608486608164 676.9576121386797 1 1 0
16950 175 12 0 621.8144478719227 597.2340092945707 675.7690113624786 1 1 0
16949 175 10 0 621.688374193835 600.3666599963183 678.048795626654 1 1 0
16952 175 18 0 626.6341635007434 593.2967861017436 674.053765699908 1 1 0
16951 175 18 0 625.7512244463455 597.2219536790901 675.2012929086403 1 1 0
16948 175 2 0 624.3923698471152 603.1485247167791 678.8494754642343 1 1 0
16956 175 17 0 625.8455919203191 594.5880968899685 686.0156792344654 1 1 0
16954 175 2 0 623.5682487072421 591.661644799268 680.3295060873139 1 1 0
15562 161 6 0 619.0213588992374 598.4873493339084 684.4490823504617 -3 0 0
15564 161 2 0 613.423254193104 600.5890662241532 683.2348949950339 -3 0 0
15563 161 9 0 616.448881548063 598.7363605688251 682.0020988771445 -3 0 0
15565 161 1 0 613.0034694441699 604.4796747834874 684.7769209724729 -3 0 0
16943 175 1 0 616.7038839131899 607.9011666938411 676.5062051123507 1 1 0