LAMMPS data file via write_data, version 8 Apr 2021, timestep = 11390002

6208 atoms
40 atom types
6144 bonds
1 bond types

548.8454457994151 651.1545542005849 xlo xhi
548.8454457994151 651.1545542005849 ylo yhi
548.8454457994151 1265.009204607604 zlo zhi

Masses

1 131.199997
2 57.0499992
3 128.199997
4 101.099998
5 156.199997
6 71.08000180000001
7 115.099998
8 129.100006
9 163.199997
10 99.0699997
11 113.199997
12 128.100006
13 186.199997
14 147.199997
15 87.08000180000001
16 137.100006
17 114.099998
18 97.1200027
19 103.099998
20 113.199997
21 131.199997
22 57.0499992
23 128.199997
24 101.099998
25 156.199997
26 71.08000180000001
27 115.099998
28 129.100006
29 163.199997
30 99.0699997
31 113.199997
32 128.100006
33 186.199997
34 147.199997
35 87.08000180000001
36 137.100006
37 114.099998
38 97.1200027
39 103.099998
40 113.199997

Bond Coeffs # harmonic

1 9.6 3.81

Atoms # full

13011 135 9 0 549.4901282924262 558.5545609357487 549.0999715445046 -9 4 0
13010 135 2 0 551.0143410430666 562.1720375903321 549.2690867167653 -9 4 0
16573 171 18 0 583.7081199861983 551.4942459713492 563.3965315442983 3 1 1
16574 171 17 0 581.0976929146707 553.557446489107 565.1293480952329 3 1 1
16587 171 12 0 586.3212594786353 563.8397613942105 563.1057070742231 3 1 1
16586 171 4 0 589.5668293244808 561.6983145553348 563.6466074398659 3 1 1
16575 171 12 0 581.1762700704518 551.6019389581517 568.7628335843244 3 1 1
16580 171 5 0.75 587.8697091723129 553.0725076974434 568.096088788554 3 1 1
16579 171 9 0 586.5986850143273 556.3060653615352 569.9907116406772 3 1 1
17649 182 6 0 582.1287862246547 568.255651832705 566.9420496526205 3 2 0
17648 182 10 0 582.1019298847775 566.3761476684283 570.1858648694619 3 2 0
17647 182 5 0.75 585.5210638961339 564.5451357435747 570.7617420131197 3 2 0
15613 161 2 0 592.5026125421425 568.4053809788917 564.133118716561 1 2 1
15612 161 6 0 594.8787800866974 565.7820854519233 565.9383337936271 1 2 1
16581 171 10 0 590.9742804791921 550.7291875797581 568.4270514987868 3 1 1
16582 171 6 0 593.6877954017705 553.4250574309918 568.0374722197759 3 1 1
16584 171 9 0 593.9401903969655 556.0844532616378 562.0438913064864 3 1 1
16583 171 2 0 595.8904468010794 553.7381286098096 564.9923785415151 3 1 1
16585 171 8 -0.75 591.8499620885445 558.6342921882913 563.8943099259801 3 1 1
15611 161 10 0 596.4939280830927 564.0482025723832 562.972431268764 1 2 1
17621 182 13 0 595.3947153695359 559.1342048196422 570.8588547900531 3 2 0
17619 182 6 0 599.5861955080044 557.5369811439364 564.3609162075995 3 2 0
17620 182 18 0 597.7826068871008 559.0224602216152 567.2110113179581 3 2 0
17618 182 15 0 602.4782860207305 557.1171765146739 561.5215764050628 3 2 0
17617 182 15 0 604.1943165703609 559.9957652941797 560.5676860283301 3 2 0
17616 182 12 0 606.3673001390033 562.8108444443803 561.4807548150017 3 2 0
17615 182 4 0 604.7284764832901 564.1442308022052 565.0331657360986 3 2 0
17509 181 6 0 591.1266291172094 558.8950676740175 549.2870857488322 1 8 1
17613 182 17 0 607.7178808821051 568.9129209646055 562.9087103237124 3 2 0
17508 181 12 0 593.5997200966347 556.4533551509057 551.1162356665491 1 8 1
15610 161 5 0.75 597.4632273574476 567.6756738817478 561.2920332879983 1 2 1
17614 182 12 0 605.552373313036 567.8929837682275 565.9553821226509 3 2 0
17507 181 2 0 595.7597444432147 559.5479060998584 551.7889264896154 1 8 1
17506 181 9 0 598.1189336696631 561.3633558696204 549.0148916646049 1 8 1
17638 182 1 0 606.9001590803846 555.548929029949 569.4225228954567 3 2 0
17635 182 17 0 599.5120714421329 550.1675683425195 566.5336013350001 3 2 0
17637 182 15 0 606.3348168235549 552.5097697970464 566.6910742183727 3 2 0
17636 182 2 0 602.8258597332294 552.2787073888051 564.8669497517259 3 2 0
17503 181 9 0 603.9100894091109 553.6457465665311 548.926276225389 1 8 1
17609 182 12 0 612.6215973109555 567.0761775766928 557.875076154962 3 2 0
17608 182 17 0 611.4015664683293 564.5839740511149 560.092480244772 3 2 0
17607 182 13 0 612.9336514882854 564.1838498358327 563.9230602154493 3 2 0
13049 135 17 0 620.146014923388 557.0566745269676 559.9042216091372 -10 4 0
13048 135 13 0 616.9253432701402 559.6460918465068 559.7263566729791 -10 4 0
13050 135 12 0 619.690694095077 552.9061841374331 560.0696945184251 -10 4 0
13051 135 12 0 617.8033059633486 551.4132610287846 557.169528496054 -10 4 0
17606 182 6 0 610.7292073885338 562.4733807079863 566.5279171937289 3 2 0
17605 182 12 0 610.2745954239633 558.8253801466028 565.1618374684962 3 2 0
17604 182 2 0 611.9517227777965 558.0790361729587 568.5159261640741 3 2 0
13047 135 6 0 616.8372632263091 563.4923532739477 559.6494167939368 -10 4 0
13046 135 12 0 619.2285204123672 566.7065572536089 558.7902391153202 -10 4 0
17603 182 9 0 614.4830571611128 556.0978200489728 569.8384879096917 3 2 0
14765 153 2 0 630.3039553817543 552.4470604234776 554.2407752718159 0 2 0
13043 135 1 0 624.1306591138307 568.8065565384816 554.2447557828042 -10 4 0
13040 135 6 0 628.1994930291231 566.1652760022773 550.3473745914401 -10 4 0
13042 135 2 0 623.6901304826902 565.9217028569093 552.2653711167313 -10 4 0
13053 135 14 0 625.0226209532185 550.4667466388864 556.0500923603005 -10 4 0
13052 135 2 0 621.2471017994066 550.7278472038723 555.5369883967678 -10 4 0
17602 182 1 0 616.2430125518997 552.632634808545 570.2507965860458 3 2 0
17601 182 2 0 614.982894646644 549.8431856763187 568.2247825854356 3 2 0
14767 153 13 0 633.4379932048645 549.1140467610271 559.5030044896861 0 2 0
14753 153 17 0 641.8924770279447 567.7120086201643 562.7616200200764 0 2 0
14754 153 12 0 643.0687116136543 563.922663999931 561.4288336259907 0 2 0
14755 153 20 0 645.003884956114 563.0133511335911 558.4872597549536 0 2 0
14756 153 2 0 642.7156593808711 563.4547006524833 555.560189305297 0 2 0
14760 153 18 0 640.8493474011462 553.1842554565286 561.2487844069167 0 2 0
14757 153 9 0 639.8868944567008 560.9318875328597 554.708349988767 0 2 0
14759 153 12 0 642.931948347896 556.0955417527308 559.6228653475399 0 2 0
14758 153 18 0 641.216607307906 558.1698605104705 557.0448671952203 0 2 0
14761 153 9 0 637.0475692200977 554.5540799842444 561.038493016188 0 2 0
14762 153 2 0 635.5053338314966 556.8378570289909 557.8248051832934 0 2 0
14763 153 12 0 633.2173066229221 557.088313855809 554.930952534338 0 2 0
14764 153 13 0 631.3191651850473 555.2471599657441 552.1067018972293 0 2 0
14766 153 12 0 631.4193778330531 549.4394163874539 556.4698336440001 0 2 0
17060 176 12 0 634.4122592130058 566.5266589878963 555.8042615184955 1 3 0
17059 176 17 0 634.3029564034977 566.5267667975968 559.8575819221218 1 3 0
14770 153 17 0 640.0813815473452 549.6520932566624 567.7124085769616 0 2 0
17058 176 18 0 633.8382088262236 569.2945408963285 562.6532123210852 1 3 0
13039 135 18 0 632.0563118484569 565.3912214209919 549.2081700682502 -10 4 0
14752 153 12 0 642.7971823858245 567.7914967669616 566.6277413785307 0 2 0
14751 153 12 0 642.6092420157196 564.5629948326202 568.5403808580492 0 2 0
13012 135 18 0 651.0100620313112 554.9256514444905 550.1921599438151 -10 4 0
15597 161 12 0 588.6620700087625 582.2457871100712 567.6522242677704 1 2 1
17650 182 2 0 580.9315926746093 571.0564147241504 569.0035634669904 3 2 0
17651 182 9 0 577.6099348010006 572.3961087334633 570.8144622908032 3 2 0
17517 181 12 0 586.2112977660612 585.3159118155802 549.5150638859001 1 8 1
15616 161 4 0 592.9446452273844 574.1033518956306 558.3110380035349 1 2 1
15615 161 8 -0.75 591.4671842120802 570.5219212279571 558.5860432201126 1 2 1
15617 161 12 0 590.3064873220856 576.4710658225758 556.854109353686 1 2 1
15614 161 9 0 590.2385273811652 570.432104296707 562.0193402875492 1 2 1
17612 182 14 0 609.0630189899366 572.6407989201741 562.5149861457867 3 2 0
15608 161 2 0 600.1468108238308 574.7340416528313 563.0576533157204 1 2 1
15609 161 9 0 599.4560457915703 570.9220348166955 562.8359230204652 1 2 1
15607 161 15 0 600.3284047350123 575.5745290631833 566.7994368751523 1 2 1
15606 161 18 0 602.5328411276374 578.4196032103498 568.4880620950846 1 2 1
15589 161 9 0 593.6145202316106 589.293699971624 558.3953843109408 1 2 1
15596 161 2 0 591.5076093415873 584.3933329411819 566.4756494614948 1 2 1
15595 161 12 0 594.7100205518177 587.1859065594391 566.6623010399318 1 2 1
15588 161 17 0 592.9413808799123 588.4903771014842 554.5867760367 1 2 1
17611 182 2 0 610.65925932478 572.8804883258945 558.9684182937611 3 2 0
13045 135 2 0 620.7680851783541 569.9285391783943 558.9539686837953 -10 4 0
13044 135 9 0 624.2769788695562 570.2244266509163 557.8383405335248 -10 4 0
16976 176 1 0 616.9885521516871 578.1822598345912 557.8177644271311 1 3 0
16977 176 20 0 614.5381894154635 578.6011816003846 554.764651998313 1 3 0
17610 182 12 0 612.7290598357654 570.6054648612512 556.6346036089527 3 2 0
17036 176 15 0 626.7151861429511 586.3840861226374 549.3481294094671 1 3 0
17038 176 18 0 626.7639854699779 582.9379427423618 554.3034873773425 1 3 0
17037 176 6 0 624.8329852175482 585.2000508583263 552.3353930316171 1 3 0
17046 176 10 0 628.6816854119143 583.140483692992 561.0236460436668 1 3 0
17045 176 2 0 624.8574586378899 583.5237827795386 561.4364972385001 1 3 0
17042 176 18 0 626.2927036855492 575.5401695407755 563.6093007868102 1 3 0
17040 176 1 0 624.7804714908793 577.8448795391889 557.4830420673119 1 3 0
17043 176 17 0 624.0932272732148 578.4657353713761 565.6446208568788 1 3 0
17044 176 9 0 623.0929683286896 582.4325786827128 564.8779253168279 1 3 0
17041 176 2 0 624.1272264049599 575.9567478848778 560.4082237243073 1 3 0
17039 176 13 0 626.7988794483033 579.316493398408 554.7102693880662 1 3 0
16978 176 17 0 616.6193255219843 577.2111701357876 551.9284675958648 1 3 0
17065 176 5 0.75 630.3961241172753 576.1558413942497 549.765792111474 1 3 0
12999 135 1 0 646.023648298824 584.2550573770857 549.4173733061366 -10 4 0
17062 176 15 0 638.3986207866816 571.6786816462092 552.7171581348312 1 3 0
17061 176 18 0 635.8627966780597 569.6091670459332 554.811037257963 1 3 0
17047 176 12 0 631.2776076435821 582.9003458859836 563.4306860749438 1 3 0
17063 176 2 0 635.443434757515 573.0914609486922 550.8831688848184 1 3 0
17064 176 9 0 632.6686927634418 574.8871356838688 552.8695252887567 1 3 0
17055 176 15 0 636.1622132060397 571.4857591831104 569.4097746061366 1 3 0
17057 176 11 0 631.7311751771421 571.1477684358687 565.4802797896696 1 3 0
17056 176 1 0 632.7385829071767 572.3598069490671 568.7786703325985 1 3 0
17048 176 18 0 630.751714533253 580.7008440489794 566.5866998494633 1 3 0
13001 135 17 0 645.3550114050487 578.5290127569388 548.9698109674193 -10 4 0
13000 135 20 0 647.8815193314348 581.0083255152172 550.4974250595718 -10 4 0
13002 135 18 0 642.8919314433165 575.5451150516328 549.7547655893698 -10 4 0
17049 176 18 0 633.7317371189163 582.1918862938242 568.3934963507078 1 3 0
13469 139 18 0 556.8756902476205 608.7854215093691 561.4239392295258 0 -4 0
13471 139 12 0 557.4383598596559 606.233093365574 555.3562490126395 0 -4 0
13472 139 18 0 560.4840665804845 608.2695426394838 555.0376784458283 0 -4 0
13470 139 17 0 557.03256930562 605.3961278083184 559.1963225554967 0 -4 0
13467 139 1 0 550.4171810424934 607.0381636556814 558.4271627201184 0 -4 0
13468 139 11 0 553.0255601401508 608.3443989835183 561.0123860786686 0 -4 0
13474 139 2 0 563.059334186584 607.5156967276662 549.7129670519395 0 -4 0
15572 161 12 0 587.2416664723017 592.9758237633508 565.2637895261927 1 2 1
15573 161 12 0 586.8658231323699 592.3202330591807 561.5437143179432 1 2 1
15574 161 2 0 587.2887427183048 592.7681510163212 557.7319728230141 1 2 1
15575 161 14 0 585.3801468554826 596.1401522591859 557.0900463856007 1 2 1
15577 161 12 0 587.8972105606754 603.2618156382207 557.9720041883886 1 2 1
15576 161 17 0 586.7648542590726 599.6308644876626 558.1602067090711 1 2 1
15594 161 18 0 597.0193968402384 589.9461396902284 565.5926810348577 1 2 1
15592 161 12 0 600.2441390357329 594.2075582316386 561.9334756315192 1 2 1
15591 161 10 0 597.5478980974091 594.6368961810426 559.0731210255768 1 2 1
15593 161 18 0 600.3578242912226 591.5464904189632 564.8231423650925 1 2 1
15590 161 2 0 596.6783107640143 591.3440304377108 558.6206214784245 1 2 1
15579 161 12 0 592.5236336281014 606.0016552925283 553.2307731498272 1 2 1
15578 161 4 0 590.7815964484743 605.2226197521754 556.5370308380226 1 2 1
15567 161 2 0 599.8472965397189 600.3571679811955 563.5644288800182 1 2 1
15580 161 15 0 592.8362917028579 603.4177224372954 550.0992100842345 1 2 1
15571 161 17 0 590.4993957390495 592.5955943746259 567.2259075653454 1 2 1
15570 161 13 0 592.9573475632131 595.7057172316166 568.0151295130073 1 2 1
15569 161 6 0 595.9875401336367 597.3280831890481 565.6879063827002 1 2 1
15568 161 12 0 598.8474471503807 599.0459545761055 567.2584417004679 1 2 1
15566 161 9 0 597.9088919167166 603.364497915308 561.920352468381 1 2 1
15565 161 1 0 598.7301342433341 607.1766416352772 562.0015814085782 1 2 1
15530 161 12 0 609.5491400168286 608.8915343207633 566.7032554148402 1 2 1
15564 161 2 0 595.0810526977024 608.5547737268428 561.5908705636592 1 2 1
15563 161 9 0 593.926718062424 610.0632207631702 558.0868563077931 1 2 1
15535 161 12 0 602.2151613714493 606.2000141441895 570.8472340531786 1 2 1
15587 161 18 0 591.4023419151704 590.6067590167978 551.6963055544492 1 2 1
15582 161 6 0 598.4104576934849 598.7029158514556 549.3767708059959 1 2 1
15586 161 2 0 592.4441797878605 593.7646200139072 550.1733341266252 1 2 1
15531 161 20 0 610.7269076426236 605.5686275095186 566.5190354147821 1 2 1
15525 161 10 0 616.1086195998223 610.0222013078728 554.1467461337538 1 2 1
15524 161 18 0 614.9765261855224 607.5977090708682 551.6785953493718 1 2 1
15532 161 2 0 610.5979388145015 604.341198356343 570.0218714686613 1 2 1
13464 139 17 0 646.2920999214364 605.9385583329481 563.3239719949913 -1 -4 0
13465 139 2 0 649.6565435065984 604.8078178097045 562.127635425863 -1 -4 0
13466 139 15 0 650.0993513315266 604.8145666762487 558.4052071060237 -1 -4 0
13463 139 12 0 646.6543672730511 609.515760081286 563.9462587784786 -1 -4 0
16553 171 18 0 550.4242043953105 624.7386405562281 570.1801902724994 3 0 1
16554 171 13 0 553.3399017842542 627.2049359484777 568.9109404800132 3 0 1
17546 181 18 0 569.069332898068 625.5530890185008 555.3649630704515 1 8 1
16556 171 2 0 559.6465518299475 626.266578340846 565.6303902785382 3 0 1
16557 171 18 0 563.2807505448224 625.594193918375 567.326865481618 3 0 1
16559 171 9 0 568.6374351412708 628.6463559020104 569.7327739594425 3 0 1
16555 171 1 0 556.6170431721646 627.0381884574703 567.3580452791966 3 0 1
16558 171 17 0 565.07964096934 628.6983230711596 568.0469554903752 3 0 1
17849 185 1 0 557.6100253059055 630.4236869444937 561.942333526562 -2 -5 1
13473 139 15 0 562.321380565612 610.4239048746465 552.2519337202796 0 -4 0
17538 181 17 0 582.670730325691 617.4093897047551 549.86918420465 1 8 1
17539 181 2 0 583.788487532324 616.0037563963903 553.4991759618248 1 8 1
17540 181 15 0 585.3948168140573 618.6333962336422 556.1547476271376 1 8 1
17541 181 1 0 583.6360464603008 621.8383246011465 555.6307233196793 1 8 1
17542 181 11 0 579.6180289701214 623.2291106249181 556.1069775987446 1 8 1
17547 181 15 0 571.9961549781696 627.9204282478447 554.3662319300871 1 8 1
17543 181 18 0 576.1625764657372 622.1654153830594 555.4022116932725 1 8 1
17545 181 12 0 570.9161603811224 623.5671471647672 558.0708170189954 1 8 1
17544 181 17 0 573.6242034803846 620.8415227147269 557.4543085181571 1 8 1
13882 144 20 0 587.8268760060834 630.5044644631815 549.4276073371044 1 2 0
13483 139 12 0 574.900195704123 626.22932239023 549.1997117154315 0 -4 0
15560 161 10 0 597.1694233902033 615.6444341419505 561.6534633320647 1 2 1
15529 161 17 0 610.1987523332232 611.6422451805332 563.7389301678489 1 2 1
15559 161 12 0 599.7140548695827 618.5791129422665 561.888855708486 1 2 1
13877 144 12 0 598.4826497849343 629.6509407618432 557.6842837464048 1 2 0
13881 144 12 0 590.4568471308191 629.3158457938058 551.8332764603507 1 2 0
13879 144 12 0 592.2485142296645 625.8934108253156 556.8279354985207 1 2 0
13878 144 12 0 595.2312262688547 627.6240155959132 558.0255047588639 1 2 0
15562 161 6 0 595.6070048932443 613.6730783067256 557.3782956990793 1 2 1
15561 161 18 0 595.0431765944577 616.7957487566108 558.740565257676 1 2 1
15554 161 1 0 608.9160602432269 627.9279285322838 565.7268461990035 1 2 1
15555 161 18 0 607.82267752118 624.473517341121 564.7044438781699 1 2 1
15553 161 9 0 609.4682557082137 629.8272080835957 569.2241518160268 1 2 1
15556 161 17 0 607.610768739661 624.604618953699 560.7371033453263 1 2 1
15557 161 2 0 604.3460667941704 622.452114561179 559.6178997942978 1 2 1
13876 144 10 0 601.737632369366 627.4524414380895 557.9938808338999 1 2 0
13880 144 17 0 589.9118581653831 627.6957559750567 554.7736321125041 1 2 0
13875 144 18 0 601.3215144271018 625.2642640261311 555.407834090292 1 2 0
15558 161 13 0 602.0269564306905 621.7888441358886 562.636824567154 1 2 1
13873 144 20 0 600.2638558661721 620.7366901854222 551.1364247528418 1 2 0
13874 144 17 0 600.7668267295052 621.6659852931608 554.4685522341107 1 2 0
15549 161 12 0 604.9127703108106 621.4430364064448 570.5405580976621 1 2 1
13872 144 1 0 601.5490713180428 617.1800195510318 550.963236333905 1 2 0
13443 139 12 0 624.1334198739906 612.0216206342565 549.4097969355471 -1 -4 0
15528 161 12 0 612.9716596468766 613.0078568572593 561.6990618663813 1 2 1
15527 161 12 0 612.2099907431763 613.1919743126496 557.6984779245196 1 2 1
15526 161 12 0 613.4317995487845 612.9809861848797 554.2623399066457 1 2 1
13071 135 18 0 624.5886882267677 628.1424632226125 569.5238833553612 -10 3 0
13075 135 12 0 623.3007503252164 616.0509447514487 570.0004900879147 -10 3 0
13076 135 17 0 626.2723266665494 613.9899366579335 568.3500478522953 -10 3 0
13077 135 2 0 628.4915930573817 616.7989451522158 570.6081516039322 -10 3 0
13457 139 10 0 639.9698513662761 623.231689794659 553.3249492204808 -1 -4 0
13458 139 12 0 641.6337840641753 621.2254531944611 556.3191903281877 -1 -4 0
13459 139 18 0 643.8679362530119 618.1093951525589 556.7453958517967 -1 -4 0
13456 139 2 0 636.1814448347471 623.1555536454051 553.072926209249 -1 -4 0
13455 139 9 0 633.014804245225 622.2066131035516 550.8208993583605 -1 -4 0
13461 139 12 0 649.0873700911511 614.3497765370981 560.2239200486679 -1 -4 0
13460 139 18 0 645.4173186090406 615.4877214968902 558.8084511968491 -1 -4 0
13462 139 2 0 649.1077719428528 612.0580980917888 562.9439403184582 -1 -4 0
16550 171 15 0 645.3522680190136 627.5465639550358 566.5882607946155 2 0 1
16551 171 15 0 646.1616972974138 624.9469972208519 569.3750901880961 2 0 1
17552 181 6 0 567.4199080068058 640.5232934178301 552.2183883418124 1 8 1
17553 181 2 0 565.5699584030791 637.6957763885857 550.298354297701 1 8 1
17554 181 9 0 561.9649144247784 637.1328626015851 551.6004070798045 1 8 1
17852 185 18 0 560.6140207889641 632.0777116799331 570.3874669095444 -2 -5 1
17851 185 17 0 561.1007316395584 634.0120748002446 567.5454727910578 -2 -5 1
17854 185 12 0 554.1511895181562 635.5250577202152 570.799557739418 -2 -5 1
17850 185 20 0 559.8735135960371 633.0317975739914 563.7551948863372 -2 -5 1
17855 185 12 0 553.4261657191956 639.0218030688028 569.3738437927909 -2 -5 1
17856 185 12 0 550.1464189371704 639.9743684754932 568.1415163051693 -2 -5 1
17549 181 9 0 569.4379252792553 634.0272075535916 552.0929851327243 1 8 1
17548 181 2 0 571.4242741701875 630.796107900953 552.2865297598931 1 8 1
16570 171 15 0 580.7886582892888 646.2643987082909 564.9611152579398 3 0 1
16572 171 11 0 585.4381254757903 650.488413682905 561.4537836032204 3 0 1
16571 171 1 0 584.3845556308737 647.3373660243624 563.4191917077405 3 0 1
17551 181 10 0 569.4480130590795 639.4084333017049 555.4120545259477 1 8 1
16567 171 12 0 575.6723819203414 644.2000926172495 570.2681570617601 3 0 1
16569 171 2 0 576.7028169211603 644.8582801716733 564.8202036921211 3 0 1
16568 171 17 0 573.6087435065889 645.1666621730368 567.4398659640614 3 0 1
17550 181 5 0.75 571.6087339514885 636.3766986804309 554.3809632113661 1 8 1
13892 144 2 0 578.7093508471793 639.9938862501957 549.4964795570866 1 2 0
13893 144 12 0 578.8494984345074 642.1697601163509 552.5549277449823 1 2 0
13894 144 13 0 575.8326049904597 644.1260840360416 553.0285742369603 1 2 0
13895 144 9 0 572.4323643903964 643.5351973125091 551.7683644396991 1 2 0
16565 171 12 0 571.6614808920057 639.2338640130054 569.6011725294826 3 0 1
16564 171 18 0 570.7465814621131 635.662529341233 570.6743658028669 3 0 1
17633 182 2 0 595.5928396257069 648.0394671889076 568.1514325166913 3 1 0
17634 182 12 0 598.7101883636316 648.7496451637902 566.6441245378733 3 1 0
13054 135 17 0 624.9392709788058 650.5622402861864 558.9444283534264 -10 3 0
13055 135 12 0 627.2261812360484 650.2054319032079 561.9554372159125 -10 3 0
13056 135 4 0 627.6206125650231 648.3469663344687 565.4345189674689 -10 3 0
17595 182 13 0 623.0970947700055 645.4470305687556 552.7134787968996 3 1 0
17599 182 6 0 618.0127089749096 650.3010266283321 563.6100446155261 3 1 0
17600 182 9 0 614.5899397217319 650.1915968580312 564.7992781409768 3 1 0
17598 182 18 0 618.8950633103774 646.7955469377613 562.0016937405962 3 1 0
17596 182 12 0 621.0771249088301 644.0760791860923 555.4918249697942 3 1 0
13058 135 15 0 623.9128778734812 642.15244424847 565.8005888922021 -10 3 0
13059 135 15 0 623.5635147187672 639.4673394484928 563.0638824338379 -10 3 0
13061 135 18 0 627.5859137525875 643.5868807470509 559.5660953065212 -10 3 0
13060 135 6 0 626.9178355885165 640.2325170302637 561.4452541433765 -10 3 0
13057 135 12 0 625.1975268717019 645.7768040196239 566.2508362182798 -10 3 0
17597 182 10 0 619.7883035484058 645.722064254363 558.7016389176367 3 1 0
17594 182 2 0 624.961910768132 644.2411781581466 549.4238136216569 3 1 0
13068 135 2 0 627.0754832387336 637.632460283654 569.0001113156341 -10 3 0
13067 135 9 0 629.9182011855121 640.2304830077377 568.8690364253612 -10 3 0
17593 182 17 0 628.9697021352606 644.6734014896055 549.1179122721819 3 1 0
14768 153 9 0 635.6269261456044 649.76896571451 562.2895996866667 0 1 0
17870 185 12 0 644.9029009749701 642.3990563118693 552.1001071628885 -3 -5 1
17869 185 2 0 646.27114428155 638.7696806743199 553.7080217021377 -3 -5 1
14776 153 12 0 638.3338062077712 639.8027456386475 553.7392230705208 0 1 0
13063 135 1 0 633.6381839849806 642.7299889412518 557.9904084465297 -10 3 0
13062 135 13 0 630.6484367489011 645.2456637467335 557.6135664096512 -10 3 0
13065 135 18 0 633.5376120729183 641.3420475461313 563.3810987563379 -10 3 0
16546 171 17 0 646.479659418834 638.9134947878066 563.541127896652 2 0 1
13064 135 2 0 635.8119735276161 640.224091898197 560.0983226855046 -10 3 0
16549 171 12 0 645.602373591167 631.4309024188038 566.4026342714752 2 0 1
16547 171 12 0 648.5387466319982 635.7409528974354 563.6176535506085 2 0 1
16548 171 4 0 648.6765300492478 631.6957453468782 564.7322819982058 2 0 1
14773 153 12 0 642.4251276479972 645.7110363994756 562.6917531684613 0 1 0
14772 153 12 0 645.5221958032275 647.9719055438568 564.4421789380884 0 1 0
14771 153 6 0 642.5322206954737 649.0988789300828 566.7145215741696 0 1 0
13066 135 17 0 631.2431633773159 642.4584856903446 566.0021348984335 -10 3 0
17863 185 12 0 639.7370016772888 634.9108558732976 567.827098750768 -3 -5 1
17864 185 18 0 638.7772683433038 634.8902465874443 564.2774707126625 -3 -5 1
17866 185 2 0 645.0512280952528 634.3253718388249 559.5275234038562 -3 -5 1
17867 185 12 0 646.5292186519432 633.1399380899784 556.1121801283012 -3 -5 1
17865 185 9 0 641.716539918525 633.6446594402657 561.6067766169499 -3 -5 1
14774 153 20 0 641.6052929453544 642.5468085299643 560.1491360302749 0 1 0
17868 185 13 0 644.6743451208333 635.3042486294871 553.8153325652289 -3 -5 1
14775 153 2 0 640.2604762954883 640.0065978688621 557.2038626190431 0 1 0
14769 153 2 0 637.3979816747205 650.6333737974023 565.3839376238963 0 1 0
17857 185 17 0 649.680807311083 638.1868847542586 570.6315805698684 -3 -5 1
16545 171 14 0 645.023084489742 641.049655663526 566.6438976773893 2 0 1
16544 171 2 0 641.3170714046547 640.8493868970642 567.3641448035459 2 0 1
16542 171 12 0 636.8340224582994 646.435617494556 569.2804382217232 2 0 1
16543 171 12 0 639.2194509066071 643.869763043497 567.9673642583098 2 0 1
14777 153 9 0 637.6647827476548 640.413877800889 549.8016870898864 0 1 0
14746 153 20 0 549.2152545634825 554.2200594300116 574.1811360411173 1 2 0
16577 171 15 0 582.6438948191133 553.9497362614925 573.8881980428287 3 1 1
16578 171 2 0 585.2294635812028 557.1062469744602 573.4294534641039 3 1 1
17627 182 2 0 586.2384062514229 554.9024800922645 579.5679256543494 3 2 0
17626 182 9 0 588.2369928345614 558.537694773271 578.6687854387042 3 2 0
17646 182 9 0 586.0319140502743 563.5440752266713 574.4898605500016 3 2 0
17645 182 2 0 589.1899924624913 564.0200727418002 575.0407203385 3 2 0
16576 171 18 0 580.8549833357104 550.6916640691487 572.4734492396964 3 1 1
17628 182 10 0 588.3497435930201 551.7054346433698 579.0468232232569 3 2 0
17623 182 2 0 593.8707176653057 555.602307638429 575.7022289307098 3 2 0
17625 182 17 0 591.4977641171455 556.8886426019105 580.2260712730472 3 2 0
17624 182 18 0 594.5483410822922 554.5749147724532 579.3774529566513 3 2 0
17642 182 12 0 598.9317271720867 564.1865652567507 574.2786500462156 3 2 0
17640 182 18 0 600.9529303195643 557.414207772232 574.2539578480579 3 2 0
17641 182 17 0 600.1321861833961 560.909448081134 576.0540478989759 3 2 0
17622 182 1 0 592.4550692366581 557.8121804429476 573.3263456629059 3 2 0
17639 182 11 0 604.037881491289 555.9018727882396 572.0040711019147 3 2 0
17643 182 18 0 595.2587364479992 565.461467619556 573.2779029273971 3 2 0
17644 182 15 0 592.9350397339933 563.7971116839437 575.9341379208454 3 2 0
16500 171 12 0 598.7881186414526 567.1799252374625 590.8013033829831 2 1 1
16503 171 9 0 598.055098703131 560.0747833605506 586.0786866870649 2 1 1
16501 171 20 0 598.8634284089559 566.7141017533284 587.1357116722477 2 1 1
16502 171 2 0 597.9192511301247 563.4527401488227 585.197997811319 2 1 1
16512 171 12 0 605.1780821906406 567.3803907159717 589.4981935713125 2 1 1
16513 171 13 0 608.8682142323564 567.021505628579 588.2571825299614 2 1 1
16514 171 9 0 609.1731509804614 568.9720752411135 584.9657241044185 2 1 1
16504 171 18 0 598.0485474009784 559.3565749202085 589.7777931225573 2 1 1
17629 182 12 0 591.0281484927613 549.560244904903 579.3993333027195 3 2 0
16505 171 12 0 600.0085004740748 556.5293124698075 591.285009552331 2 1 1
16536 171 9 0 619.7897310954106 549.0119531473479 573.7305747728768 2 1 1
16538 171 12 0 626.7194834781633 549.7144211323325 573.4066711226709 2 1 1
16537 171 2 0 622.9270980468531 551.2423132318088 573.8920359624182 2 1 1
16525 171 18 0 625.1878615043886 553.8660901569622 578.5124582494625 2 1 1
16520 171 20 0 621.5134869834139 562.4530058730759 584.4408111466872 2 1 1
16521 171 2 0 621.9668471025312 563.354619621004 580.4858638596277 2 1 1
16522 171 12 0 625.3331853043658 562.3877729394362 578.3471543111827 2 1 1
16523 171 9 0 625.472859949723 559.6145834438076 575.8864208528098 2 1 1
16524 171 1 0 627.1977270777762 556.6265442667171 577.8144784793943 2 1 1
16526 171 17 0 621.545743799542 552.5883288026835 579.6831889167107 2 1 1
16519 171 12 0 617.6663189622573 561.798831954534 584.4800248558266 2 1 1
16517 171 6 0 615.6902743564075 567.9987278580008 584.8512984243125 2 1 1
16518 171 12 0 616.3059042976266 564.8708134414169 587.100675969 2 1 1
14749 153 10 0 642.0599499539452 560.2170329014959 574.1435071973398 0 2 0
14745 153 1 0 650.611512163555 550.3662766206855 574.7476604972934 0 2 0
14747 153 17 0 647.8953158259503 556.1806673734667 574.4995119412887 0 2 0
14748 153 18 0 644.2451447775294 557.2252742953497 574.3836809141743 0 2 0
14750 153 12 0 644.1657254408988 562.4748558716327 571.5983029190927 0 2 0
17654 182 12 0 575.062957641608 573.943275012913 578.0890606957757 3 2 0
17653 182 4 0 576.5982132733798 577.0849731563031 576.350637471155 3 2 0
17652 182 8 -0.75 578.1069761645393 575.2637787968345 573.1570644524918 3 2 0
17437 180 18 0 584.3348489704056 589.61410046618 581.5492528915247 0 4 0
17436 180 18 0 584.2735254011955 586.2338184536414 579.314156045784 0 4 0
15598 161 17 0 588.5972707410782 580.7389871174873 571.4571552623504 1 2 1
17434 180 10 0 588.5991518405168 586.3146117839136 575.5631079551116 0 4 0
17435 180 12 0 586.0936113316128 584.389935887686 576.7443633259802 0 4 0
17406 180 9 0 589.0691176765192 587.0000066067614 590.707551332869 0 4 0
15605 161 12 0 602.206927785269 577.8171030366768 572.0476954502601 1 2 1
15603 161 18 0 598.7031491865041 578.0247539965313 577.2301643076445 1 2 1
15599 161 2 0 590.5715757178989 578.7674911720677 573.761474949126 1 2 1
15604 161 17 0 602.528612763306 578.2940800861873 576.021491143155 1 2 1
15601 161 1 0 593.1646264025962 581.2175513243508 578.13721489336 1 2 1
15600 161 15 0 589.9365312699085 580.2301983391177 576.9741721317743 1 2 1
15602 161 11 0 595.7691214879192 579.9232303919648 575.415518812692 1 2 1
17399 180 17 0 602.4821245564365 584.4679116230177 573.4129555130128 0 4 0
17400 180 2 0 603.6528288731755 584.1765733227948 577.0541307021359 0 4 0
17402 180 12 0 599.2706569090898 584.6618128425386 582.8307704198234 0 4 0
17401 180 13 0 601.6328894837363 585.7387263639425 580.0927497447307 0 4 0
17405 180 6 0 592.7669603502951 587.8672100476131 590.2088200304346 0 4 0
17403 180 10 0 598.7428146692992 586.9452661593886 586.0253710024657 0 4 0
17404 180 18 0 594.9866476855459 586.2968818070087 587.7140031514481 0 4 0
17398 180 18 0 603.8676407358344 587.809523503665 572.7622364167312 0 4 0
17432 180 9 0 592.3054688603055 589.5336878981651 579.4881640645248 0 4 0
17433 180 2 0 591.5298169756617 588.0771733720768 576.1953859953708 0 4 0
17431 180 17 0 594.8516022899861 589.0418448062131 582.1314321997105 0 4 0
16393 169 12 0 609.6638354972017 588.5704260934422 588.7746281173696 2 1 0
16392 169 4 0 609.1543518982062 588.3956179127714 592.5506576810728 2 1 0
17415 180 12 0 599.9811420433136 589.7517195243046 592.4328611896252 0 4 0