LAMMPS data file via write_data, version 8 Apr 2021, timestep = 11390002

6208 atoms
40 atom types
6144 bonds
1 bond types

548.8454457994151 651.1545542005849 xlo xhi
548.8454457994151 651.1545542005849 ylo yhi
548.8454457994151 1265.009204607604 zlo zhi

Masses

1 131.199997
2 57.0499992
3 128.199997
4 101.099998
5 156.199997
6 71.08000180000001
7 115.099998
8 129.100006
9 163.199997
10 99.0699997
11 113.199997
12 128.100006
13 186.199997
14 147.199997
15 87.08000180000001
16 137.100006
17 114.099998
18 97.1200027
19 103.099998
20 113.199997
21 131.199997
22 57.0499992
23 128.199997
24 101.099998
25 156.199997
26 71.08000180000001
27 115.099998
28 129.100006
29 163.199997
30 99.0699997
31 113.199997
32 128.100006
33 186.199997
34 147.199997
35 87.08000180000001
36 137.100006
37 114.099998
38 97.1200027
39 103.099998
40 113.199997

Bond Coeffs # harmonic

1 9.6 3.81

Atoms # full

13351 138 6 0 562.1545983424717 551.8126307117016 556.1052818295399 -4 2 1
13352 138 18 0 560.2219120407358 548.9192696866185 557.5840393661958 -4 2 1
13350 138 15 0 564.7701233904692 553.6432595995748 554.3071738582698 -4 2 1
13349 138 15 0 563.2397203681144 556.7704459108334 555.4181293420262 -4 2 1
17364 180 1 0 554.3121351242097 560.5534197817351 554.6794143270427 1 -1 1
13345 138 17 0 562.8080844496479 568.6736792321135 559.6790637541974 -4 2 1
17366 180 17 0 556.9332781802966 565.0055684550516 550.7752426921261 1 -1 1
17365 180 20 0 555.7826227405463 561.4254791697575 551.3544676151973 1 -1 1
13361 138 12 0 558.7140315455937 551.7633477844208 562.4146911318572 -4 2 1
13360 138 10 0 555.6790538357965 553.40942829799 562.2280239588255 -4 2 1
13359 138 2 0 552.8428835125322 551.2197199326703 561.8411219995432 -4 2 1
13348 138 12 0 561.7497124496108 559.5391690970657 557.7392091497733 -4 2 1
13347 138 4 0 561.1595825043881 562.4483521911848 560.2757364225416 -4 2 1
13346 138 12 0 560.5167330822195 566.0993126018489 561.6190218746481 -4 2 1
15815 164 18 0 550.6062460892922 567.334022915584 565.6576544980961 -5 1 0
13358 138 9 0 550.6900962141293 549.9216306091207 559.0440446168006 -4 2 1
17281 179 12 0 577.3326841735742 568.5634540189864 556.5734655509564 2 1 1
17285 179 12 0 579.7137873806518 565.2894371613709 568.809732812967 2 1 1
17282 179 18 0 578.1399439701885 566.5230137454739 559.6323403549303 2 1 1
17283 179 9 0 580.2002050470858 564.8927198880974 562.2097655641086 2 1 1
17284 179 2 0 577.9782699373471 563.9607408806671 565.1645188141068 2 1 1
15682 162 1 0 600.3039651307057 559.5235504922182 553.0366878891961 -4 2 0
15681 162 13 0 597.992053542379 561.2867208611905 550.6310073324611 -4 2 0
15680 162 18 0 599.2193074215987 564.7478106854583 549.833705017111 -4 2 0
15685 162 17 0 604.6033884915564 562.6393999960179 560.4298097313293 -4 2 0
15684 162 18 0 601.416167545355 564.0454658275614 558.9605235280546 -4 2 0
15683 162 2 0 601.4195573586113 562.1464046341871 555.4700527696344 -4 2 0
15689 162 12 0 608.5455093547646 553.0824398239994 565.2232637789677 -4 2 0
15686 162 9 0 604.2930362355686 558.9973065874431 560.2387332060769 -4 2 0
13766 142 9 0 608.3225471397992 550.5569282139696 555.889538994845 2 1 1
15687 162 2 0 606.2426042000054 558.7519447328315 563.4331335508557 -4 2 0
15688 162 10 0 609.2582679606754 556.6381939123241 564.8107543401404 -4 2 0
13767 142 5 0.75 609.1853698510481 554.480083327011 556.8950519943403 2 1 1
15690 162 18 0 608.2763159938872 549.2083557936958 565.4768533423104 -4 2 0
13772 142 8 -0.75 619.1361975425857 556.1793211223054 567.8161164049227 2 1 1
13768 142 10 0 612.4067304741966 553.8773389792198 559.1501978083733 2 1 1
13770 142 2 0 614.3908527788095 551.9554803278858 564.5170344789179 2 1 1
13769 142 6 0 612.7927109748916 550.7217667755217 561.5827347238974 2 1 1
13771 142 9 0 616.9294197102588 552.8212338682205 567.5701843672003 2 1 1
15814 164 17 0 648.9360048470919 566.1960116933302 564.7959779115373 -6 1 0
15813 164 20 0 648.7666935974953 562.7573915466861 563.839447387072 -6 1 0
15820 164 17 0 649.0494039452133 565.7881472570862 557.6650379319259 -6 1 0
15823 164 2 0 649.5613855351972 567.9590888310911 550.6078163746807 -6 1 0
15821 164 12 0 650.7295086318613 562.9526723443936 555.7094939491326 -6 1 0
15822 164 20 0 649.7838696678634 564.6684608633208 552.4170835841201 -6 1 0
15812 164 1 0 645.548815883928 561.6389974919017 561.9368829849681 -6 1 0
13344 138 14 0 562.5871839778716 571.7954941275511 557.2461021951688 -4 2 1
13343 138 2 0 561.3527509762141 571.3096667437202 553.6971683193894 -4 2 1
13342 138 12 0 562.2650782456693 574.4264998191919 551.3056363392101 -4 2 1
15826 164 12 0 555.191369664158 573.637457534995 555.3058481948259 -5 1 0
15827 164 18 0 553.701312899662 575.5426658487504 558.594208005118 -5 1 0
15828 164 9 0 551.7463357949202 578.606900907548 560.4291388780524 -5 1 0
15548 161 12 0 562.8947063462151 575.568131850692 564.6317831915778 -1 -1 0
15547 161 6 0 563.2286551151998 576.4834483571389 568.5251573174161 -1 -1 0
15825 164 18 0 553.7291929921761 570.80469231072 552.8079394791835 -5 1 0
15543 161 13 0 556.6331278709978 580.4508305428225 566.5048528175585 -1 -1 0
15544 161 9 0 555.5520242262214 577.1913738791224 568.2099417784739 -1 -1 0
15549 161 12 0 562.0506021013027 577.452434279692 561.497803342279 -1 -1 0
15542 161 12 0 559.8747416830722 581.9000611990109 567.6662177834213 -1 -1 0
15541 161 2 0 562.6798428773743 582.6746275691947 565.7920844586888 -1 -1 0
13411 139 2 0 550.5584993672185 579.1040669337651 552.6807878643853 3 1 0
13410 139 9 0 554.1330922068798 579.398319532951 551.9407181112211 3 1 0
15551 161 2 0 565.8810044528736 579.7435634195458 556.9433897240016 -1 -1 0
15552 161 12 0 569.2543144011412 581.6561453442897 556.9566962566878 -1 -1 0
15550 161 20 0 562.9400284177599 578.0584086752125 558.2250306150523 -1 -1 0
14059 145 10 0 569.1968368822407 588.97512332928 556.6826075994367 2 -3 1
13414 139 12 0 549.9663679249572 587.3211211843644 555.1494016332119 3 1 0
15816 164 10 0 551.7504781284908 571.0209626607207 564.8631583999945 -5 1 0
15539 161 12 0 563.3882452381663 585.5515811465937 560.0125954282399 -1 -1 0
15540 161 13 0 564.5081539834221 585.2430428730174 563.6520787548357 -1 -1 0
15538 161 2 0 561.5130927049369 588.4580215540682 558.3503281668623 -1 -1 0
15824 164 9 0 550.31362593693 570.144256702924 551.3468213840155 -5 1 0
15624 162 12 0 550.6301517638535 585.1397417865513 567.5472598677729 -4 2 0
15635 162 2 0 568.3531331188743 577.7575004883456 569.5246888634173 -4 2 0
17280 179 18 0 580.3732839844505 569.6356689095644 554.4097461519883 2 1 1
17279 179 9 0 583.9902379385646 569.5169275888096 555.0076459262436 2 1 1
17277 179 20 0 585.9580373439616 574.5531887719379 559.9759089525351 2 1 1
15644 162 6 0 578.7859563019983 576.6330782632753 558.797699006817 -4 2 0
15640 162 13 0 582.5125619784137 577.4294270952269 567.2489822340511 -4 2 0
15642 162 2 0 577.7319994163688 575.3948050967623 563.2098232181468 -4 2 0
15641 162 9 0 580.1987236288443 574.7547315624548 566.0995672189472 -4 2 0
15643 162 17 0 575.3173802456417 576.3262796365955 560.7064688473216 -4 2 0
15554 161 1 0 571.6431415730763 582.1259265603538 564.3901961453241 -1 -1 0
15555 161 18 0 573.2135094317061 583.2733243223516 567.3634135111071 -1 -1 0
15553 161 9 0 570.8811775243219 581.6081268425203 560.3217267176657 -1 -1 0
15569 161 6 0 586.1268725093329 588.3863790176277 567.3066551667597 -1 -1 0
15570 161 13 0 583.7834150315647 585.4856954090062 568.708877882788 -1 -1 0
15637 162 13 0 574.810098323263 577.4089334457742 569.6649692318194 -4 2 0
15636 162 12 0 571.6265662953532 575.921321885322 568.1364634766956 -4 2 0
17278 179 2 0 585.6091122281025 571.6802034928447 557.7354702692746 2 1 1
15645 162 12 0 580.2249330181498 577.8484075010915 555.3214204167534 -4 2 0
14060 145 6 0 572.6193105437292 587.1735893140607 556.9198691996509 2 -3 1
14061 145 2 0 572.4130057061097 588.0910390165249 560.3665115821092 2 -3 1
17276 179 12 0 585.7930732312473 578.6845231362045 559.6612249388276 2 1 1
17275 179 17 0 586.3581020080519 580.6690896082899 556.7537171379023 2 1 1
14062 145 9 0 575.7812847257318 587.2423246350601 561.7295827437661 2 -3 1
14063 145 8 -0.75 578.5062827104 588.0365040785505 559.1320009486627 2 -3 1
14064 145 4 0 580.304896800467 585.1853683240165 557.3050062535382 2 -3 1
15646 162 12 0 582.1513454088858 579.1508111558935 552.5035947815679 -4 2 0
16016 166 20 0 589.573983240503 589.1056415665479 553.835238383483 0 -2 1
15670 162 12 0 587.6939586627481 569.7856451587855 549.0742843326607 -4 2 0
14065 145 12 0 582.3121361232452 586.441117081709 554.2368409910395 2 -3 1
15669 162 12 0 588.0925824598213 573.4366342900292 548.9829510289607 -4 2 0
16025 166 13 0 571.7171148252545 587.9933784359064 550.5902270200712 0 -2 1
15678 162 15 0 600.6406730280826 571.7520040225603 549.5928456385991 -4 2 0
15590 161 2 0 593.1821335575586 588.212265033539 566.6599353737754 -1 -1 0
16017 166 2 0 591.469707127897 587.5152604811448 550.7338860157986 0 -2 1
17271 179 10 0 596.6455700799089 582.6139454596022 552.6042815124717 2 1 1
17270 179 18 0 599.3787559703587 585.3945653792399 551.5256593388145 2 1 1
17269 179 17 0 599.8278139906547 588.9240067171755 549.6398783179965 2 1 1
17274 179 12 0 590.2338470165201 581.6865102590219 555.7600703718596 2 1 1
17272 179 12 0 596.0835963629662 578.8328851543839 552.7838317944767 2 1 1
17273 179 12 0 592.0339567538994 579.0392708701445 553.4413128793866 2 1 1
15614 161 9 0 597.807502478202 580.8717067935687 567.7199710939441 -1 -1 0
15615 161 8 -0.75 597.4304790292191 578.0471718137435 565.11266706386 -1 -1 0
15616 161 4 0 597.774043576051 579.649424606159 561.7784919068584 -1 -1 0
15617 161 12 0 601.8625001146107 579.632203067873 562.0086256166595 -1 -1 0
15613 161 2 0 599.5345795899044 584.015369605033 568.2001069635984 -1 -1 0
15611 161 10 0 602.4612932827113 587.2381315999027 565.2609870502139 -1 -1 0
15612 161 6 0 603.3994529811681 584.8891934218454 568.8863864992458 -1 -1 0
15610 161 5 0.75 606.1871578414828 588.1108645941459 564.2847685409866 -1 -1 0
15609 161 9 0 609.4136393387604 589.2053230991246 565.6936047959693 -1 -1 0
16758 173 18 0 629.3607308838093 582.2798026337356 554.3320686311265 -1 3 0
16766 173 11 0 630.2049818027609 575.2772781734121 563.3566921833948 -1 3 0
16760 173 2 0 630.703576412637 576.9235777127341 550.2845832602666 -1 3 0
16759 173 12 0 630.3802277220974 580.408029809209 551.0186594754786 -1 3 0
16755 173 10 0 629.5527988944417 585.567935564906 564.120536483271 -1 3 0
16754 173 2 0 627.1705909475952 588.7671433126974 564.1161930368997 -1 3 0
15817 164 12 0 650.7094393114546 572.6108355290629 562.8365755211107 -6 1 0
15819 164 12 0 649.088897725674 569.524044160661 557.255096764427 -6 1 0
15830 164 12 0 648.760453407421 582.0581381007698 562.0593276176683 -6 1 0
15829 164 2 0 650.8372218126691 578.6199279176097 562.5280438753803 -6 1 0
15831 164 13 0 645.4789076813389 581.6316443315811 559.9729752237928 -6 1 0
13412 139 17 0 650.4612138837513 580.6707697912058 555.0639577322578 2 1 0
15818 164 12 0 648.1511912107022 571.5759257520559 560.2489013859168 -6 1 0
15832 164 2 0 643.163796538479 579.1953124091297 557.9112689323578 -6 1 0
15833 164 12 0 642.9102468383004 578.0970563964067 554.3595622488594 -6 1 0
15834 164 13 0 645.6791628306501 576.9648541580241 552.3355941908726 -6 1 0
16764 173 15 0 634.8602269594352 578.6736880508149 558.8909477891209 -1 3 0
16763 173 2 0 633.9099062955099 577.8308209532684 555.5306904041292 -1 3 0
16762 173 17 0 635.5757985831818 576.5799968531527 552.3636207552474 -1 3 0
16765 173 1 0 631.9404094165757 578.688048139491 561.9039776273801 -1 3 0
16767 173 18 0 630.744306083428 572.9244231315798 566.1273167686599 -1 3 0
16761 173 12 0 632.5449826535296 574.1309027479076 551.6924097118697 -1 3 0
16757 173 18 0 631.0979382545528 584.5104342545633 556.7253649065121 -1 3 0
16756 173 12 0 630.7882792846639 585.0956256768716 560.5320252551315 -1 3 0
15835 164 9 0 647.5927517004084 577.4712712563404 549.1006139840433 -6 1 0
16776 173 6 0 641.4490249785523 588.5265590478172 566.3173080710247 -1 3 0
16775 173 10 0 643.1030314000494 586.0787914939368 568.8573848636628 -1 3 0
16780 173 4 0 639.6821007729714 583.8267624468541 556.1062071677628 -1 3 0
16779 173 8 -0.75 636.5532687905196 586.5297948574173 557.3091472080366 -1 3 0
16777 173 2 0 640.8705001161494 588.4302347083672 562.4364985683728 -1 3 0
16778 173 9 0 637.4770734048121 586.5604530930804 561.2295509424766 -1 3 0
16781 173 12 0 638.1494087928476 582.7465239414659 552.8176357581124 -1 3 0
16773 173 9 0 647.5431142804338 581.0521957755878 568.2926987481574 -1 3 0
15623 162 12 0 649.9250355263348 587.6947688970134 569.065627247135 -5 2 0
16772 173 2 0 645.8934830829149 578.3477751043025 566.0065410067284 -1 3 0
16768 173 17 0 634.2528112270182 573.4257398028826 567.5561884500205 -1 3 0
16774 173 5 0.75 644.0160566191139 582.9645856412761 567.831269099584 -1 3 0
16771 173 15 0 642.5760322745397 577.2740871564239 566.8607809515368 -1 3 0
16769 173 12 0 636.327696668683 576.3561245461059 565.3687721412803 -1 3 0
16770 173 18 0 639.7246657844208 577.3367009145064 564.3917847824559 -1 3 0
13413 139 6 0 650.4353051031961 584.4778201317433 555.4826104165824 2 1 0
15535 161 12 0 557.509481556655 593.0952680870173 567.6577915752697 -1 -1 0
15536 161 18 0 559.1149783340165 591.9607343000241 563.8691288924698 -1 -1 0
15537 161 9 0 559.5406275575591 591.4286427371666 560.100001982986 -1 -1 0
13417 139 2 0 556.9315670105841 593.5212441424673 552.7076773823172 3 1 0
13419 139 9 0 558.2426141460351 599.6104885804806 556.0790080476696 3 1 0
13418 139 12 0 558.3144948491514 595.9763391997001 554.6397602718826 3 1 0
13420 139 1 0 554.9811274357927 601.0558289532137 557.3285495129583 3 1 0
13422 139 17 0 558.5241404623303 605.7683690317725 556.7966698158219 3 1 0
13421 139 18 0 555.3686345931615 604.8104788587226 558.6894056032477 3 1 0
13423 139 2 0 558.4472047990803 607.9076220556697 553.6703556850458 3 1 0
13424 139 13 0 558.891789916283 605.1561876165937 550.9673259771009 3 1 0
15528 161 12 0 555.4934594333697 599.0535691027018 568.2781527677195 -1 -1 0
15527 161 12 0 552.8177050874822 597.420629279327 566.2688204189405 -1 -1 0
15525 161 10 0 549.6334233561569 595.6597344113478 560.070820315435 -1 -1 0
15526 161 12 0 550.1817523083563 597.2475528466848 563.7260917530466 -1 -1 0
13723 142 9 0 549.6397285578144 604.9155975246962 550.8621179253078 2 0 1
13459 139 18 0 567.2527197562647 608.5392004864606 555.6381206611351 3 1 0
13458 139 12 0 568.4626305960928 605.1453815106106 557.1979947773832 3 1 0
14057 145 9 0 563.2618454589937 591.7020784260317 553.7231698181934 2 -3 1
14056 145 2 0 561.4720798833409 591.5426975187684 550.4178466888075 2 -3 1
13416 139 20 0 554.4540330130656 590.5135883420221 552.6356174905231 3 1 0
14058 145 5 0.75 565.9618352895889 590.8825381453938 556.1229000410974 2 -3 1
16031 166 17 0 565.0509396895361 604.3071671703071 551.7168334046727 0 -2 1
13724 142 2 0 549.7582795046915 607.7386261241763 553.6990668574447 2 0 1
16029 166 9 0 564.3207361102106 598.1146230554154 549.9922488969914 0 -2 1
13415 139 12 0 552.315494910292 590.269123780149 555.8340966955041 3 1 0
16030 166 2 0 565.188010263349 600.6218901099795 552.1278560646235 0 -2 1
16024 166 12 0 574.9949669812145 589.9677330946304 551.5612265920329 0 -2 1
15568 161 12 0 586.4394699788023 591.6720322543624 566.3898260319882 -1 -1 0
16014 166 17 0 584.1078192661921 592.9432645412321 550.3590977058551 0 -2 1
15564 161 2 0 573.2733922143345 591.033482552446 568.3862421801075 -1 -1 0
15567 161 2 0 584.069564329572 592.3458060204591 569.4471475951332 -1 -1 0
15565 161 1 0 576.7722794438916 592.4318692963752 569.5825739473689 -1 -1 0
15566 161 9 0 580.2957828501552 591.6785014158437 568.9381596911194 -1 -1 0
15598 161 17 0 589.3451935783742 602.6333719087592 554.8270853110083 -1 -1 0
15597 161 12 0 586.9422876550533 602.265041346519 557.9606141775457 -1 -1 0
13457 139 10 0 571.9575417517223 605.2966821183271 555.6316387313759 3 1 0
13454 139 17 0 578.7492754560735 604.5185883011229 550.2719187876568 3 1 0
13453 139 18 0 577.6111446441334 608.3566089728777 550.2464654880323 3 1 0
13456 139 2 0 572.9346408464799 605.46349486272 551.9828818673931 3 1 0
13455 139 9 0 575.6394167261162 602.9563646039066 550.9847565826997 3 1 0
16015 166 12 0 587.0037612423304 591.7059224324197 552.6521455236493 0 -2 1
17656 183 20 0 589.7182245685107 607.9684975971354 568.378112203323 2 -1 1
17657 183 17 0 587.8045988856956 604.6327428417443 567.4578385230246 2 -1 1
16013 166 12 0 581.9682888323993 596.30862842837 549.7555563552608 0 -2 1
16023 166 2 0 577.4413877166901 591.356109542965 549.2270029487843 0 -2 1
15591 161 10 0 593.902533092785 591.6891290588912 565.1917699702325 -1 -1 0
17267 179 1 0 606.0536611352719 592.0343604229734 550.8637450663381 2 1 1
17268 179 20 0 603.1137807054067 590.4233039472248 548.9182382945608 2 1 1
15593 161 18 0 597.3190087438483 595.1746165900678 562.1194797909515 -1 -1 0
15592 161 12 0 597.5851241629781 592.1242800606506 564.3275665662798 -1 -1 0
17673 183 12 0 597.0226682808702 607.0609123614886 550.4781952616388 2 -1 1
15594 161 18 0 594.1100192086143 594.9662094146535 559.9899348713902 -1 -1 0
17674 183 13 0 600.8942440326203 608.036795519775 550.4050318066593 2 -1 1
15603 161 18 0 602.8270160332216 600.9256084067606 561.0972007509553 -1 -1 0
15602 161 11 0 599.4419724186083 599.7443468049893 559.4873174244517 -1 -1 0
15601 161 1 0 597.0686890279858 599.400916892078 556.8556760948305 -1 -1 0
15600 161 15 0 594.8126974734816 598.755671863006 554.132873676286 -1 -1 0
15595 161 12 0 591.2551635797018 597.7671895955873 560.0172436610109 -1 -1 0
15599 161 2 0 591.4387535105562 600.0783146362828 553.3731259678442 -1 -1 0
15596 161 2 0 590.2076091790872 601.5244861390528 559.572824065319 -1 -1 0
15604 161 17 0 605.3682308627353 598.1442505404754 562.5713175419119 -1 -1 0
15605 161 12 0 603.4428204922697 595.5985900256516 564.9078136183102 -1 -1 0
15608 161 2 0 609.2347051464031 590.5416249491619 569.314272246038 -1 -1 0
15606 161 18 0 604.1659885804727 593.6195618977512 567.8350615233047 -1 -1 0
17661 183 12 0 596.711249864732 608.080597628055 560.5145972736102 2 -1 1
17660 183 12 0 594.5651625628116 605.3964111765018 562.0398927763026 2 -1 1
17659 183 10 0 593.0649393956996 602.9386204481086 564.6123375520679 2 -1 1
17662 183 12 0 597.4200775175517 607.9421114515349 556.5822747287881 2 -1 1
17658 183 18 0 589.8316674997059 602.2063129199428 565.2754451442607 2 -1 1
16753 173 9 0 629.052840526054 590.4989322275093 567.6343089898952 -1 3 0
15524 161 18 0 649.564667696142 596.4804786577887 557.4855485353035 -2 -1 0
15523 161 17 0 649.6404713879909 595.6448870860202 553.8394342818115 -2 -1 0
13725 142 12 0 650.1159473957453 609.7048663812798 556.0508347044631 1 0 1
15522 161 20 0 648.5664393096858 593.7053240679575 550.9534002342092 -2 -1 0
16042 166 2 0 549.2432937546401 613.3725223837454 551.5068376651227 0 -2 1
13727 142 13 0 549.8539981632935 615.1056262481194 560.0039135542635 2 0 1
13728 142 17 0 550.5121896333745 618.4137372555809 558.4092012728122 2 0 1
13465 139 2 0 557.9355555431662 613.6911662785761 564.6577099380105 3 1 0
13464 139 17 0 558.7872302437362 614.4231436119553 560.8348560664781 3 1 0
16039 166 1 0 556.2985518738521 618.1690569217548 549.3651680626426 0 -2 1
13740 142 18 0 564.9149411147549 628.848585459882 550.3806474559448 2 0 1
13466 139 15 0 556.2238352148455 614.9282927359751 567.8211582259793 3 1 0
13742 142 1 0 569.2780352124693 624.0709296019129 550.8508587533975 2 0 1
13467 139 1 0 553.891876525194 616.350659553093 565.7294080800657 3 1 0
13741 142 13 0 565.5485494071843 625.2163426468942 550.5641837041984 2 0 1
13468 139 11 0 553.4724372860284 619.8170943478012 566.9720715190251 3 1 0
13462 139 2 0 559.283864736783 612.8309593130928 555.9794144806839 3 1 0
13463 139 12 0 556.4699613094508 614.5311774739507 558.1043652567229 3 1 0
13461 139 12 0 561.9885025814874 611.710279912848 553.3624363641765 3 1 0
13460 139 18 0 565.6237652743255 611.2018309498371 553.5946326522542 3 1 0
13732 142 14 0 555.1088077138784 630.0414878333056 554.3378897430136 2 0 1
13731 142 2 0 552.4183429552028 627.2402903935441 554.8865541068162 2 0 1
13737 142 15 0 559.7524787944737 630.4644752671422 558.2961671271918 2 0 1
13730 142 12 0 552.604369045462 623.4704889612243 555.0362274163343 2 0 1
13729 142 12 0 550.0972839602549 621.6652486570583 557.0342018503096 2 0 1
13469 139 18 0 549.9752691397725 620.8503983433229 565.2257980277182 3 1 0
13726 142 6 0 651.1544124477969 611.4756756338434 559.0230025713038 1 0 1
16040 166 18 0 554.0426339880729 615.1430312782232 549.8918102383906 0 -2 1
16041 166 17 0 552.0416168891752 614.681614486692 553.1678629860797 0 -2 1
17667 183 9 0 588.6666318503827 620.8193762176901 556.392451972522 2 -1 1
17668 183 18 0 587.4734739442548 620.4320832524961 552.5159453031898 2 -1 1
17684 183 20 0 588.1684961891166 630.2316039969918 556.6808559949343 2 -1 1
13744 142 18 0 573.0474523753379 620.2686454276787 548.9163391210675 2 0 1
16657 172 2 0 631.6291954432805 634.9596792911474 673.8775701646871 0 2 0
13743 142 2 0 570.5648839994785 620.6807497169151 551.7179525442715 2 0 1
13745 142 17 0 575.6609731218034 623.3666590082771 549.6582120638401 2 0 1
17675 183 2 0 601.9021131283781 611.5097859258174 549.7123592184745 2 -1 1
17664 183 12 0 597.1238427329143 614.6954297728025 556.8385276662626 2 -1 1
17663 183 17 0 597.1665407394519 611.4174381244593 555.3839426865513 2 -1 1
17678 183 9 0 600.9490842214468 622.0591645761264 551.2409951259524 2 -1 1
17666 183 2 0 590.3192222042684 617.8881223102101 557.8071697504897 2 -1 1
17665 183 20 0 594.25570724812 616.7646224897759 558.7354354057223 2 -1 1
17676 183 12 0 602.4388125440641 614.881627043904 549.4889782149758 2 -1 1
17677 183 13 0 601.9782048792702 618.8507557535848 549.3335651797003 2 -1 1
17682 183 12 0 591.6175207104102 627.5868711876584 552.6132595869626 2 -1 1
17681 183 6 0 593.5911575950448 628.4933605391035 549.6985258526383 2 -1 1
17671 183 9 0 592.0566462662837 611.5692440806282 550.3154754205843 2 -1 1
17670 183 18 0 590.0355976712507 615.0747915682917 548.8701680955301 2 -1 1
17679 183 2 0 600.1854767952332 625.4179192945226 549.5967330730109 2 -1 1
13483 139 12 0 626.2086735991387 623.6633038679909 559.156412399708 2 1 0
13482 139 4 0 629.5183048734858 621.5716345854322 558.7132072449884 2 1 0
16067 166 6 0 621.4562074936074 615.043562611321 550.8083556289472 -1 -2 1
16066 166 15 0 622.907916941684 617.9864065289041 549.1747000350704 -1 -2 1
13478 139 6 0 631.3450310594557 620.7836878237009 568.5376806925376 2 1 0
13480 139 9 0 633.2936225262496 616.894186483808 563.1428468944175 2 1 0
13479 139 2 0 630.7997857739009 617.9769180043844 566.0236153895901 2 1 0
13481 139 8 -0.75 632.1126931038436 619.801585766345 560.7795341539894 2 1 0
13470 139 17 0 648.9513736170131 620.4102052293681 563.1786945051241 2 1 0
13472 139 18 0 645.5559250418899 624.8587199929513 564.1368899288141 2 1 0
13471 139 12 0 645.4704214160919 621.9696505529128 562.4579656467055 2 1 0
13473 139 15 0 641.7938588712519 625.1005834914833 565.2750745236883 2 1 0
13474 139 2 0 642.1757088926907 628.2081838551136 567.6620080164892 2 1 0
13475 139 9 0 638.3008835351113 628.3499945317374 569.1177704902603 2 1 0
13477 139 10 0 633.9028117756106 623.116433062113 569.5564692728183 2 1 0
13476 139 5 0.75 635.7069192602291 625.7433589292064 567.91785773606 2 1 0
13353 138 13 0 559.2411612565292 647.6533471198119 556.6385540263727 -4 1 1
13362 138 18 0 557.3137711063771 650.5552452818183 562.714683538378 -4 1 1
13364 138 12 0 557.6316991103868 645.0582939936797 566.6128426656279 -4 1 1
13363 138 18 0 558.9050892059857 648.4679477663227 565.2460032639511 -4 1 1
13733 142 17 0 556.0077382387219 633.4906132305157 553.6825612400946 2 0 1
17714 183 15 0 564.2897520388395 641.0392677203384 558.5222199622503 2 -1 1
17713 183 12 0 566.8965478341581 639.0812538888018 559.5922759102849 2 -1 1
13735 142 4 0 559.6129494086155 636.2989434885146 559.2032056581743 2 0 1
13356 138 18 0 552.5641330440247 649.9584242621087 552.2909171892077 -4 1 1
13357 138 17 0 551.9748870430649 649.5251769547535 556.1922380070514 -4 1 1
17716 183 6 0 565.9855898775008 645.5135512251699 554.633600208526 2 -1 1
13739 142 6 0 562.1892559845365 631.1162481518295 551.8015577137676 2 0 1
13738 142 15 0 561.4335484978959 631.92856047045 555.1029202497181 2 0 1
13736 142 12 0 560.6696872010106 632.9215450281356 560.8047149147 2 0 1
13366 138 12 0 562.5889653118251 640.756062031096 568.1796334107429 -4 1 1
13365 138 2 0 558.8792766404184 641.6558245454323 567.7735368053139 -4 1 1
13369 138 15 0 569.3015523198492 641.7729226715808 566.3946064558901 -4 1 1
17715 183 15 0 563.9050828547863 642.0268085147521 555.3024498230164 2 -1 1
13354 138 1 0 557.1159587113593 646.2684865047546 554.2262136143676 -4 1 1
17706 183 12 0 569.1993715707471 639.4273558007363 552.8661471370905 2 -1 1
17712 183 4 0 569.2160950448857 635.80892526939 559.9496558558113 2 -1 1
13734 142 12 0 557.6856725972275 635.8573412226259 556.1194064886986 2 0 1
13355 138 2 0 553.779581127442 646.5523630214728 552.1552795853239 -4 1 1
17717 183 18 0 565.1308062799442 645.3162830762512 551.0672917210488 2 -1 1
17685 183 2 0 584.4837884572819 631.3855107066255 556.8279190418884 2 -1 1
13370 138 1 0 572.4525306719098 640.2067227751563 564.6972724223496 -4 1 1
17704 183 13 0 572.9764381853614 645.9673037644278 554.3241028649691 2 -1 1
17703 183 6 0 575.0718409546321 648.4588922583591 552.1078917425542 2 -1 1
17711 183 12 0 572.1383757704373 636.7212642905557 557.5197826101814 2 -1 1
17708 183 2 0 572.2453935621102 633.8044507494128 549.6076379703643 2 -1 1
13377 138 2 0 587.6751069604527 647.065245934453 549.1088836050593 -4 1 1
13376 138 15 0 584.7922613416375 645.7089217780398 551.4644500213261 -4 1 1
13373 138 17 0 579.149903054551 642.7430224224453 558.4284883010234 -4 1 1
13372 138 18 0 577.7662669967201 642.0354719153189 561.7615408562068 -4 1 1
13371 138 11 0 576.1865053056958 639.1695802916188 564.3226196298368 -4 1 1
13374 138 12 0 581.1638509610418 643.9195331550451 555.6854919373632 -4 1 1
17702 183 12 0 577.0754300490497 647.3986282327885 549.1718077369767 2 -1 1
17687 183 9 0 585.0448278151525 635.7309788811849 551.0148620335148 2 -1 1
17710 183 17 0 574.882267004717 635.0569108523881 555.2907783066261 2 -1 1
13375 138 18 0 583.5182247524028 642.4154039629403 552.8063656664708 -4 1 1
17705 183 17 0 571.2096073703107 642.8101417084763 553.1311375814454 2 -1 1
17709 183 14 0 575.0832993606792 633.1962268041154 551.9946380763953 2 -1 1
17686 183 12 0 583.8440882906165 634.5760348570997 554.4695958358957 2 -1 1
17707 183 12 0 569.53270371951 636.6244705240458 550.2789472610339 2 -1 1
17701 183 2 0 576.5409140989241 643.590462881287 550.1578273640475 2 -1 1
13759 142 11 0 597.9307175455158 636.7725579987243 551.488095612327 2 0 1
13758 142 1 0 594.0970761888809 635.9410382848456 550.6103997174351 2 0 1
17683 183 12 0 590.8797904085953 630.9381261667987 554.1567000560266 2 -1 1
13764 142 15 0 604.8294590564606 646.8999238794892 558.9330923826949 2 0 1
13765 142 2 0 605.7396717904047 650.037559318002 556.7847590327126 2 0 1
13763 142 18 0 605.1246147357597 645.2143505452738 555.3323281826317 2 0 1
13761 142 17 0 601.1468952823949 642.8264187751791 550.8027951858437 2 0 1
13762 142 12 0 601.4929432981078 643.81733417153 554.7014035923904 2 0 1
13760 142 18 0 600.6421926798588 638.7877746239433 549.8089306311498 2 0 1
15691 162 18 0 611.1718818082928 650.6925502047001 567.3166188025319 -4 1 0
15692 162 12 0 614.7988541393714 649.0398998289138 567.6843289323103 -4 1 0
17050 176 12 0 558.1363017325815 559.5953042329792 587.3836063770036 5 1 0
17049 176 18 0 562.0383189649069 559.6706806939824 588.229790878163 5 1 0
17048 176 18 0 564.4755833174877 560.0975495035849 585.5219275340249 5 1 0
17047 176 12 0 567.2905116936462 557.616900879275 586.6023318207413 5 1 0
17046 176 10 0 567.2436596575442 554.5157156869642 588.6199912919178 5 1 0
17286 179 13 0 581.2358344649966 565.7315526849801 572.544697651628 2 1 1
17045 176 2 0 571.0508906625865 554.7628889231678 589.2832477376853 5 1 0
17287 179 2 0 580.6427948879809 569.074843143835 573.9171006714118 2 1 1
17044 176 9 0 574.8130727351019 554.0390040443999 590.0872930047284 5 1 0
13773 142 4 0 622.2270215925587 556.0527193292905 569.8303055236008 2 1 1
13774 142 12 0 625.2019794159762 558.5225550093782 570.1300596733389 2 1 1
15694 162 12 0 614.8080346352868 550.4652081758529 573.4951120454068 -4 2 0
15091 156 17 0 630.0217834774735 550.463135723304 588.2284381979969 -1 -1 0
15092 156 12 0 630.0277224233909 551.3983820423279 584.3116593817524 -1 -1 0
15089 156 2 0 631.0593243621815 555.5982135872504 590.5924983349722 -1 -1 0
15090 156 14 0 633.2733500575868 552.2254260054981 590.2362901712072 -1 -1 0
16984 176 17 0 634.7743294698339 567.683716081055 583.8797432960004 4 1 0
16983 176 12 0 637.7524766020177 566.8151988310916 586.0132734480527 4 1 0
15093 156 4 0 633.5535935951455 549.3950731791805 583.664164261012 -1 -1 0
15095 156 15 0 639.7541378910786 549.3735348351191 583.7664177845157 -1 -1 0
15094 156 12 0 636.5699930647021 551.7397808154722 583.9843874629945 -1 -1 0
16981 176 12 0 643.595277745307 563.7434383528769 588.309085384566 4 1 0
16982 176 12 0 641.5488023806007 566.1164059424767 586.4944707123516 4 1 0
15634 162 9 0 567.4933522876742 581.322263973027 570.2114354286963 -4 2 0
15633 162 18 0 569.0499778469384 579.8796872421376 573.5933523158021 -4 2 0
15545 161 2 0 557.9406245414885 575.7016003822034 570.6969882317475 -1 -1 0
15546 161 17 0 561.6205321599273 576.6841097608327 571.9457969009937 -1 -1 0
15632 162 12 0 568.8621661164515 577.7067679430686 576.7739125475399 -4 2 0
17299 179 9 0 566.0459849145234 583.6755033328825 588.6354690989137 2 1 1
15630 162 9 0 565.2123091192186 580.4986219596503 582.0555621354205 -4 2 0
15629 162 2 0 562.2024434860641 581.175579659991 580.0319365345919 -4 2 0