LAMMPS data file via write_data, version 8 Apr 2021, timestep = 11390002

6208 atoms
40 atom types
6144 bonds
1 bond types

548.8454457994151 651.1545542005849 xlo xhi
548.8454457994151 651.1545542005849 ylo yhi
548.8454457994151 1265.009204607604 zlo zhi

Masses

1 131.199997
2 57.0499992
3 128.199997
4 101.099998
5 156.199997
6 71.08000180000001
7 115.099998
8 129.100006
9 163.199997
10 99.0699997
11 113.199997
12 128.100006
13 186.199997
14 147.199997
15 87.08000180000001
16 137.100006
17 114.099998
18 97.1200027
19 103.099998
20 113.199997
21 131.199997
22 57.0499992
23 128.199997
24 101.099998
25 156.199997
26 71.08000180000001
27 115.099998
28 129.100006
29 163.199997
30 99.0699997
31 113.199997
32 128.100006
33 186.199997
34 147.199997
35 87.08000180000001
36 137.100006
37 114.099998
38 97.1200027
39 103.099998
40 113.199997

Bond Coeffs # harmonic

1 9.6 3.81

Atoms # full

14916 154 12 0 556.0534762079013 551.8362344755835 642.1148651396494 3 0 0
14917 154 2 0 553.0064056736605 553.4403005857814 640.505289102492 3 0 0
14918 154 12 0 553.4503498936377 557.1133163373272 638.7030048804714 3 0 0
14919 154 17 0 549.7399976422421 557.5424004469666 639.1565448316229 3 0 0
13966 144 8 -0.75 570.9945550136458 562.7603922301757 652.2913501110444 2 3 0
13967 144 4 0 574.388040133941 561.2862397067433 651.4163029941751 2 3 0
14920 154 2 0 549.3890436460538 561.0965234708179 637.7118943518141 3 0 0
13968 144 12 0 576.4184207596464 563.5850583595314 648.9564554239809 2 3 0
14896 154 14 0 558.1616989625253 628.0264890060392 647.9916659348518 3 -1 0
14895 154 2 0 554.5001384876621 626.9987011803554 647.8735385328421 3 -1 0
13910 144 12 0 562.4530501084106 626.704360217962 653.1753785665144 2 2 0
13911 144 10 0 564.9526483037971 629.3764110758555 652.1069231226131 2 2 0
14894 154 12 0 552.5988650163933 626.5211163109151 650.8773184886464 3 -1 0
14893 154 12 0 551.9583587900307 629.6520662746967 653.0629783156677 3 -1 0
18024 186 2 0 576.8792716035233 620.2535033461758 646.4024869300941 2 3 0
18023 186 17 0 578.2839054272486 617.5161163565733 648.8428606325936 2 3 0
18022 186 12 0 577.4366132195343 617.9974241738541 652.5773410019558 2 3 0
18027 186 11 0 580.7498853034567 624.4792147231294 652.7367003086855 2 3 0
18025 186 15 0 575.2750319422664 623.1919843020572 648.5073024513374 2 3 0
18026 186 1 0 579.0672473155428 623.704338094511 649.2657431749022 2 3 0
14914 154 18 0 555.7626002200149 646.6334441004695 642.9249322752094 3 -1 0
14915 154 18 0 556.968132810517 650.4039898811526 642.6687589666923 3 -1 0
14913 154 12 0 555.7494522536103 643.0477668170246 641.589802861763 3 -1 0
13952 144 1 0 568.0211539851533 635.5632859976861 651.0908842058225 2 2 0
13954 144 18 0 563.1075285713666 639.6482640210004 651.3884130543679 2 2 0
14912 154 10 0 556.4473664391362 639.8056345994139 639.9428015704009 3 -1 0
13953 144 11 0 566.6652496024594 639.0529961180001 649.8179628731045 2 2 0
14910 154 9 0 562.9929668017037 636.4508249873243 640.6565280014763 3 -1 0
14911 154 2 0 560.1526629319511 638.9956185153823 640.6594095143166 3 -1 0
14909 154 17 0 560.721888596951 634.1977366451981 642.9320242907954 3 -1 0
14897 154 17 0 556.691880170669 631.4412916402665 648.7957778520705 3 -1 0
14908 154 18 0 558.3981868868271 635.9549413422817 645.2095405208427 3 -1 0
14907 154 2 0 557.8097867858378 639.110615097331 647.5255902496555 3 -1 0
14899 154 4 0 550.4556120372365 635.6184319265694 649.3539180737633 3 -1 0
14898 154 12 0 553.2683358893258 632.9627678860118 648.3801863927231 3 -1 0
14906 154 1 0 554.0265311641987 640.38806511231 647.7706707461206 3 -1 0
14905 154 13 0 551.6681629168901 643.1959000460988 648.5879628750552 3 -1 0
14900 154 12 0 549.5637531012007 637.383873638483 652.4164135435942 3 -1 0
13959 144 2 0 567.1460601736323 549.6083772357547 656.3668891546738 2 3 0
13960 144 9 0 567.5969511577205 553.1901538923469 654.718844458538 2 3 0
13961 144 5 0.75 567.81230673556 556.3526066769269 656.4003025850479 2 3 0
13962 144 10 0 567.2519457616995 557.9683786001337 659.7764525832279 2 3 0
15521 161 1 0 566.291676552107 567.9452406690389 662.951175636192 2 0 0
13932 144 15 0 559.1573066446426 554.9864985440045 664.4393612448478 2 3 0
13933 144 6 0 559.2010097079516 555.056078407319 668.1096278399638 2 3 0
13964 144 2 0 571.0747155598655 564.0455501198902 659.9121071602353 2 3 0
13963 144 6 0 569.1985155924908 560.4846695581908 661.4187268539482 2 3 0
13934 144 18 0 559.6692086222569 555.0225440700415 671.7967207777717 2 3 0
13931 144 15 0 558.3158760431857 551.8053920357846 662.8082825410384 2 3 0
13965 144 9 0 570.9019367131526 564.461820873914 655.8308639388264 2 3 0
13930 144 12 0 556.7167866169 549.5447570888813 665.4076685725105 2 3 0
13935 144 13 0 558.0177136733596 551.6445685399386 672.6253681899872 2 3 0
12732 132 2 0 552.5880416935728 556.2880443848214 674.4480564241973 1 -2 0
12734 132 6 0 550.7243977019726 562.6105279300909 673.6691389245058 1 -2 0
14747 153 17 0 566.1306171409211 566.2496605580252 672.0279603182495 -1 0 0
14746 153 20 0 567.7571257714766 569.1262869012947 670.4466572966643 -1 0 0
14745 153 1 0 571.1932321167825 568.0243077478605 669.1412307051627 -1 0 0
14938 154 12 0 550.9215547731667 557.8366868843492 667.2609877181616 3 0 0
15522 161 20 0 563.4074783998155 570.5256501315598 662.7570770642084 2 0 0
15523 161 17 0 561.5950949392424 574.0011717858793 662.6879572088451 2 0 0
15524 161 18 0 558.71693817836 575.433129624912 664.7225729125341 2 0 0
15525 161 10 0 556.92657832146 577.9819928435725 662.3824388127772 2 0 0
15526 161 12 0 554.2620103843971 579.2972720502349 664.4893151246691 2 0 0
15527 161 12 0 550.8477106805826 578.6095094780799 665.2814873872446 2 0 0
13772 142 8 -0.75 601.213033042454 574.4809365620405 671.4018768368164 2 3 0
14839 153 8 -0.75 591.6435180621238 580.7669418109979 673.2739777300767 -1 0 0
13774 142 12 0 598.3626951573067 578.6020144622648 668.0487546571619 2 3 0
13773 142 4 0 601.3699703533814 576.8768033607388 668.4018146919432 2 3 0
17989 186 2 0 565.7873700551917 607.2844417797788 673.8247351116694 2 3 0
17990 186 1 0 564.7502757485934 603.6111419377027 673.6746099580947 2 3 0
17991 186 9 0 561.2011942111582 603.1351854295655 672.7580777262849 2 3 0
17992 186 2 0 560.0680870443581 606.2376906089235 670.5401056854076 2 3 0
17993 186 12 0 557.5992755637246 608.7793375831368 671.6256172017668 2 3 0
18017 186 12 0 575.5668607466476 609.5636996195957 662.5895040692335 2 3 0
18002 186 12 0 566.0957200597014 614.4631526882853 668.3521238221358 2 3 0
18003 186 4 0 567.8679489355176 612.3303495405592 665.4839076495842 2 3 0
18004 186 12 0 566.6408672898478 612.9120873679232 662.0201520019019 2 3 0
18005 186 15 0 563.8170395831405 611.3152893781987 659.8864572480525 2 3 0
13899 144 12 0 555.1626628460156 628.7940989167082 668.6293977557348 2 2 0
13898 144 6 0 555.7061176718587 625.3829027326944 667.7639563672572 2 2 0
13893 144 12 0 567.3687364028667 622.9470356642719 669.1896837209789 2 2 0
13895 144 9 0 561.357605273456 623.5997962712435 672.2069347451363 2 2 0
13894 144 13 0 563.7961885004662 623.3591204521815 669.4294047135214 2 2 0
13897 144 17 0 555.0382340003498 622.9257197561786 670.3183763655778 2 2 0
18001 186 17 0 566.6100268315233 615.4530049962334 672.3208549595128 2 3 0
13892 144 2 0 571.2810557078196 622.741236626563 669.9773254585117 2 2 0
13891 144 13 0 573.8196149759299 621.2755367527172 672.2418953266962 2 2 0
13896 144 2 0 557.799760741887 622.365232965476 672.8293049704126 2 2 0
13916 144 1 0 561.5760532633292 629.3611899770756 667.2863426159353 2 2 0
13915 144 2 0 562.9873356579021 629.9710748742243 663.7714699526299 2 2 0
18012 186 18 0 567.1031802086349 622.8035137072385 658.286008981414 2 3 0
18013 186 17 0 568.6244602686081 621.3856806107243 661.7624821725548 2 3 0
18014 186 9 0 569.8941916449176 618.1304901017428 663.5148381575061 2 3 0
13904 144 9 0 558.5543214734307 629.7221146165328 660.9778965179758 2 2 0
13907 144 17 0 555.8042472096068 621.3917839849915 658.9955336984802 2 2 0
13908 144 2 0 556.4989911589614 622.6104879404522 655.0651080178828 2 2 0
13909 144 13 0 559.5624731210572 624.7751462695227 654.6883169148813 2 2 0
13912 144 18 0 566.8411288712235 629.0250259811539 655.3882578056761 2 2 0
13913 144 6 0 565.7818749376158 629.4217317482439 658.935245726202 2 2 0
13914 144 9 0 566.575121642422 628.9040854886317 662.6611751140663 2 2 0
13917 144 9 0 562.6357516873254 630.5330507592288 670.7186610506592 2 2 0
18009 186 13 0 571.9222303006695 615.1527483276307 657.6311861465938 2 3 0
18010 186 1 0 571.5135455274101 617.8012945009651 654.4848563275633 2 3 0
18007 186 6 0 566.1795844432837 613.0984392837613 654.4881805473287 2 3 0
18008 186 18 0 569.6040413203981 612.9805710172485 655.4219240375108 2 3 0
18006 186 15 0 563.3890302951037 611.1352337488986 656.1786873997389 2 3 0
18011 186 2 0 569.1412071370497 619.7943139927405 656.5080994039721 2 3 0
18015 186 2 0 572.8541092136804 616.1915598439663 663.4374862146724 2 3 0
18016 186 10 0 574.3731666075095 612.786713823573 664.1861357423088 2 3 0
13905 144 1 0 557.9066154611338 626.5515618483469 662.8344513138862 2 2 0
13906 144 18 0 556.1162389296758 623.3198981213962 662.758651059149 2 2 0
18583 192 17 0 548.9088434431707 623.4933715584075 659.8338673460316 0 4 1
18582 192 14 0 550.2119590203238 624.7899839889518 663.0965569297898 0 4 1
18581 192 2 0 550.4669636103705 627.9199927475049 665.1367845764469 0 4 1
13890 144 12 0 577.5467308964193 620.028227742805 672.033403221755 2 2 0
13889 144 2 0 579.2482527981725 618.1067708951218 669.2369116276276 2 2 0
13888 144 9 0 579.9621092292434 617.222485717618 665.4024744563495 2 2 0
13887 144 18 0 582.6481471543458 614.7955776544359 667.2607434041323 2 2 0
13885 144 18 0 589.2858694918216 614.6002087081954 669.3039295991633 2 2 0
13886 144 12 0 586.0950814194358 616.0490588752491 668.0752408462561 2 2 0
13884 144 9 0 590.8021909927547 611.1500314099798 670.6101999989099 2 2 0
18018 186 18 0 578.964300505333 610.7298753989965 660.7540781056368 2 3 0
18019 186 18 0 579.5325107032148 612.960085394889 657.5941290845767 2 3 0
18021 186 2 0 579.6166415590069 618.0916163276868 655.4039798106595 2 3 0
18020 186 12 0 579.9705503652345 616.8059495784922 658.8563250194529 2 3 0
13883 144 2 0 593.9648708291545 610.6822095605536 668.6421410853678 2 2 0
13882 144 20 0 594.3173951548714 612.2656033134253 665.1356174890884 2 2 0
13880 144 17 0 590.7536924450816 617.0357330515287 662.0469560250585 2 2 0
13879 144 12 0 589.8741429836911 620.9833416616875 661.7047645535544 2 2 0
13881 144 12 0 593.1222137905288 614.1212059340673 662.0281113624447 2 2 0
18029 186 17 0 586.9083619102107 625.9332945516968 656.6822744986164 2 3 0
18030 186 12 0 587.7660986574547 629.2925142129022 656.161607449666 2 3 0
18028 186 18 0 583.506828399979 624.7786257287852 655.479885128803 2 3 0
13878 144 12 0 592.123129944716 623.5030587276876 663.7899610955521 2 2 0
13876 144 10 0 590.4707923941779 624.8499500259114 669.9803272219209 2 2 0
13877 144 12 0 592.7619847909909 625.3512613057773 667.1455080115395 2 2 0
13874 144 17 0 586.214031607965 628.8785793032484 671.711520493288 2 2 0
13875 144 18 0 589.443984400495 626.9510698607799 672.98069000582 2 2 0
13957 144 18 0 567.983171835031 644.5006179986132 655.9614829322616 2 2 0
13956 144 12 0 566.7667697048298 640.7909701794596 656.1063040259319 2 2 0
13955 144 17 0 563.5059233590024 641.6710224490355 654.4854069458527 2 2 0
13958 144 15 0 567.6260463108166 648.4499519897815 656.8190145513112 2 2 0
13929 144 4 0 560.1879068841515 650.23460183534 666.8701058793553 2 2 0
13928 144 12 0 563.554475315551 648.7502526053356 667.2816665814271 2 2 0
13927 144 17 0 563.4057712214395 644.7277594877603 666.9335948705244 2 2 0
13900 144 12 0 553.8610192952729 632.6158513261449 668.597293026432 2 2 0
13901 144 20 0 555.4397244778204 636.1724723199275 667.1808297332004 2 2 0
13902 144 2 0 556.5545656801565 635.6113409709645 663.3761306189891 2 2 0
13903 144 12 0 558.5017875022323 633.1834500788766 661.5803881357823 2 2 0
13918 144 2 0 562.9471067629696 634.3071696686707 670.3807618051824 2 2 0
13951 144 15 0 566.7521058623911 635.3922035693259 654.7106155708346 2 2 0
13950 144 2 0 562.9936634058164 634.8264061197132 654.6623159434599 2 2 0
13948 144 12 0 556.5199537328219 637.9214922030063 657.0750141437987 2 2 0
13946 144 12 0 556.7999964939315 642.8769450471827 661.175671468914 2 2 0
13947 144 2 0 557.7881375606337 638.9960547946735 660.8703203989876 2 2 0
13945 144 18 0 553.4632751978578 642.8811891829488 662.8063479490517 2 2 0
13949 144 17 0 559.866055423485 636.1176146230595 656.9357651757219 2 2 0
13926 144 14 0 566.0912370061719 642.5849356339371 668.5189849123886 2 2 0
13925 144 2 0 563.7595422568737 640.5583926098494 670.8397740967691 2 2 0
13924 144 12 0 561.2273302610632 639.1149105986747 673.1434408371658 2 2 0
13921 144 13 0 568.8703618635199 634.0236800701801 671.2045513362165 2 2 0
13920 144 6 0 567.7969344810414 633.7650685509628 667.0252112622727 2 2 0
13919 144 12 0 564.0330862172062 635.2979004367402 666.6304133681699 2 2 0
13922 144 17 0 567.8021493348026 637.5389019118044 672.6901320698402 2 2 0
14890 154 6 0 550.9158606454757 633.4116594279789 660.984487166976 3 -1 0
14891 154 13 0 548.9840554258195 630.9922753023999 659.1928943259413 3 -1 0
13944 144 18 0 551.5182103986901 645.4939142213235 664.9990353858028 2 2 0
13943 144 12 0 553.3465498373027 645.7956069396756 668.6723079761855 2 2 0
14892 154 17 0 551.1431192008266 631.3966842365253 656.4002677662623 3 -1 0
18041 186 4 0 571.4631232574142 642.9373737082659 665.4056043211203 2 3 0
18042 186 12 0 569.1125107543755 643.4335499395306 662.6037942266315 2 3 0
18040 186 8 -0.75 572.3145479018361 639.5935112367604 666.2609500742358 2 3 0
12712 132 10 0 569.4269943924927 646.6872923521465 672.1253390852938 1 -3 0
13941 144 2 0 552.3424605410097 642.6798019012587 673.0158241246214 2 2 0
12711 132 18 0 572.4720332212078 645.668861420089 670.353028416069 1 -3 0
13942 144 10 0 551.2609120334623 642.9392509684902 669.4695794711638 2 2 0
14887 154 9 0 549.5403992979193 636.1721829993425 671.5562422828309 3 -1 0
14889 154 12 0 549.9682317028469 635.3109702324864 663.9605458320757 3 -1 0
14886 154 1 0 551.6790914766269 636.5461846591348 674.5985892761521 3 -1 0
18031 186 18 0 587.8027243726758 631.7666058258574 659.3178567682295 2 3 0
18039 186 9 0 575.6301672820521 637.4022297907693 665.2740411063731 2 3 0
18038 186 2 0 575.3126250146336 633.6555210985276 666.3279025967228 2 3 0
18036 186 10 0 581.6712377504766 634.9276859226179 669.14438958778 2 3 0
18037 186 6 0 578.4484809187778 633.0660044543304 668.5778956736012 2 3 0
18035 186 5 0.75 583.6199292533861 637.6888778466005 667.5756022306917 2 3 0
18034 186 9 0 584.6088884964569 636.9161455183798 663.970207179224 2 3 0
18032 186 15 0 588.676899536015 631.0005074488647 662.7833518231381 2 3 0
18033 186 2 0 588.1636975435072 634.7340919805337 663.2353899520513 2 3 0
13648 141 17 0 598.1115851757122 642.7762389743989 674.0298872527704 -3 -2 0
13647 141 18 0 594.3253826287716 643.3689343018423 673.8731542014477 -3 -2 0
12710 132 17 0 575.3564106965689 643.4316232638741 671.6926285872543 1 -3 0
13873 144 20 0 584.8466853802593 632.2637404478297 673.5077000579287 2 2 0
12733 132 17 0 552.8874612832303 559.981164747008 675.9333451069642 1 -2 0
13936 144 1 0 559.6844269709841 549.9889264408786 675.3976245568836 2 3 0
12721 132 18 0 555.7047792705234 553.8834953297055 681.5782351158281 1 -2 0
12718 132 20 0 562.5791338225467 560.5645739349595 679.8465278548391 1 -2 0
14951 155 9 0 557.7644464599432 554.0125340617227 688.3122800746405 -2 -1 0
14958 155 13 0 555.9855506134586 560.6566715692228 687.9283207815637 -2 -1 0
12715 132 12 0 565.5721987511905 552.8582769049274 676.0643422466793 1 -2 0
12722 132 12 0 551.963538653131 552.5925952767741 682.0707665762073 1 -2 0
14945 155 12 0 568.4465145993726 568.8665584795576 687.2189508843784 -2 -1 0
14957 155 12 0 555.1858710563043 560.5012915365186 691.6198249399253 -2 -1 0
12716 132 17 0 566.9546166278243 556.4199246694199 676.9133458222334 1 -2 0
14750 153 12 0 561.9166527830666 566.8537303872155 680.4660591838181 -1 0 0
14749 153 10 0 565.5423397073178 567.3405747270147 679.2637915404789 -1 0 0
14748 153 18 0 566.6691080647328 567.1664355725435 675.6754074778228 -1 0 0
14946 155 12 0 569.5569287121635 564.9587813301036 687.0077126458236 -2 -1 0
14950 155 2 0 561.2026108557706 555.5542753287608 687.8278733492416 -2 -1 0
14959 155 2 0 555.6293791533896 559.8958685655305 684.2704599073102 -2 -1 0
12714 132 12 0 568.6274337640269 550.6230924185504 675.0128578137691 1 -2 0
14956 155 2 0 552.3595591896835 558.0855656718388 692.4859203142969 -2 -1 0
14952 155 18 0 555.0331335035137 551.473923905324 689.4600627950214 -2 -1 0
14955 155 9 0 548.9865186228211 557.1934672013596 694.7791366427878 -2 -1 0
14953 155 12 0 551.2770398542726 552.3770269251637 689.5767351500506 -2 -1 0
14753 153 17 0 561.1930799707064 565.9743687056321 689.7658484757991 -1 0 0
14752 153 12 0 559.4149657495697 567.6238072690984 686.8458978230663 -1 0 0
14751 153 12 0 560.2106349578388 565.1884755967258 683.7912663660894 -1 0 0
17029 176 2 0 569.6761862631313 554.0733619236505 693.7873403435407 0 1 0
14947 155 17 0 567.3831994490905 561.7583877686985 687.3133029827271 -2 -1 0
17028 176 12 0 572.2324666156959 556.268657680663 693.8285149456425 0 1 0
17027 176 12 0 572.9146974332618 559.9875040930059 692.9726665361361 0 1 0
14960 155 12 0 552.6292571256703 559.6473263377542 682.1337034974465 -2 -1 0
14961 155 13 0 548.8761342908938 558.7880945742452 682.6349956699996 -2 -1 0
12719 132 2 0 560.6920402686983 557.8013813219692 681.5204123365801 1 -2 0
12717 132 12 0 565.0372919942563 559.6246763947903 676.8301134854479 1 -2 0
12720 132 9 0 557.8366149692685 555.865095033823 679.4459467992343 1 -2 0
15047 156 2 0 574.5440647079228 550.8900382544398 695.3721728389991 -2 1 0
14948 155 12 0 565.7565287806841 559.2339850351127 689.616490957517 -2 -1 0
14949 155 20 0 564.1955633447467 556.1142251776965 690.070045264997 -2 -1 0
14754 153 12 0 560.7886492964972 565.1108642149992 693.8457353520896 -1 0 0
17030 176 14 0 567.8701644018108 551.1424297177243 694.7336474870076 0 1 0
14965 155 6 0 549.1822234777752 568.2820069480491 688.447619772451 -2 -1 0
14964 155 17 0 549.3245154470617 566.7736586942278 684.8910546690577 -2 -1 0
12731 132 9 0 549.9706793786677 553.6390770788927 674.8996853700937 1 -2 0
15046 156 20 0 575.3629096194153 550.882241286272 692.154318853014 -2 1 0
14944 155 12 0 567.443311508726 572.5059976694428 685.7932051940405 -2 -1 0
14942 155 18 0 564.2057322285008 573.6045455606333 690.8739963793133 -2 -1 0
14943 155 10 0 566.0200161056488 575.5357711582013 688.2215806654276 -2 -1 0
14941 155 17 0 563.0847488146732 573.9792836729519 694.3400679783571 -2 -1 0
14966 155 12 0 551.7808470274343 570.6568038890161 689.5461418597438 -2 -1 0
14967 155 12 0 553.2125528571949 573.5785455029624 690.8450661823863 -2 -1 0
14968 155 20 0 552.5992207007793 576.8626482437214 692.1731742619934 -2 -1 0
14841 153 12 0 591.42678113913 577.487540420769 679.3303130560001 -1 0 0
14840 153 4 0 592.3444986699537 577.8117926185349 675.9295238075046 -1 0 0
14837 153 2 0 585.9975680320546 584.9945162934159 675.7361739868237 -1 0 0
14836 153 6 0 584.444309622111 583.769948940661 678.8510402914131 -1 0 0
14835 153 10 0 582.2667873773089 586.8396719945383 677.9593597873495 -1 0 0
14838 153 9 0 589.4259024049479 583.4179947077146 675.0482733766626 -1 0 0
13737 142 15 0 594.0541266776144 572.3602913207 693.851895777009 2 3 0
16200 168 1 0 576.5707794579732 578.9816545251847 695.656556739155 3 2 0
13769 142 6 0 598.5818299273974 574.7394162968308 681.055783804545 2 3 0
13768 142 10 0 598.6381419963317 578.4212341854196 682.5512871049526 2 3 0
13738 142 15 0 595.4143470044822 571.6539701445136 690.3623387606106 2 3 0
13739 142 6 0 598.3928214904051 572.5448952895739 688.350506940684 2 3 0
13736 142 12 0 597.2800718779358 571.6988719760234 695.7256723610674 2 3 0
13767 142 5 0.75 601.2560860235468 580.7510264779798 681.1460087575869 2 3 0
13770 142 2 0 600.588520818061 572.2750478691682 678.8588404697015 2 3 0
13740 142 18 0 600.7483987769181 574.8993156124308 686.9721693882212 2 3 0
13771 142 9 0 601.2081010610251 573.0747805457821 675.1360132419023 2 3 0
17988 186 9 0 567.6674172430907 609.7124538521308 676.1763253835333 2 3 0
17987 186 6 0 570.8206645889771 607.8008318536486 676.8024576668626 2 3 0
14815 153 10 0 554.6125541521878 603.5165720564755 684.0515043247734 -1 0 0
17986 186 18 0 571.7820389378525 607.0281416031498 680.3452965116413 2 3 0
14817 153 18 0 560.1173552525747 606.6842216826044 687.2207314641114 -1 0 0
14818 153 18 0 560.7291662931391 610.1912316431311 688.9270709177848 -1 0 0
14805 153 15 0 556.5884532918307 592.3248137455885 690.8445923744836 -1 0 0
14807 153 18 0 553.0640192580277 597.9725414274317 689.0336019325031 -1 0 0
14806 153 6 0 553.87614437997 594.1826210941314 688.9780810156553 -1 0 0
14808 153 13 0 551.0990082917309 600.6122558225684 691.0086960018104 -1 0 0
14823 153 2 0 563.9250423163163 601.3450820522787 683.9092416858804 -1 0 0
14825 153 1 0 562.5316203466605 594.3856553824622 682.7374005576966 -1 0 0
14816 153 12 0 556.917676244435 604.8901002884074 686.5994146298469 -1 0 0
14821 153 12 0 567.3672634276662 606.2045930150537 687.2906137181868 -1 0 0
14820 153 2 0 566.5910495980623 609.3960299578105 689.3704875948409 -1 0 0
14822 153 17 0 566.3854905564657 604.5127515418725 684.3250967895297 -1 0 0
14824 153 15 0 562.0393341243857 597.9571342322481 683.9103163850141 -1 0 0
14826 153 11 0 564.2617614818457 593.3762402804307 686.1856325488629 -1 0 0
14802 153 4 0 562.1437319631934 598.0000022039443 694.8814712577508 -1 0 0
14804 153 15 0 558.7235593444208 591.7424647619098 694.1588505580313 -1 0 0
14803 153 12 0 561.702130385809 594.3289993715867 694.0426811753216 -1 0 0
14814 153 2 0 551.5218601653876 601.2067858610324 684.8371593646755 -1 0 0
14828 153 17 0 570.5387558378036 595.6014928712166 686.0773697071882 -1 0 0
14829 153 12 0 572.2799044336967 596.8789057359784 682.7122775139395 -1 0 0
14827 153 18 0 567.7616209997343 593.6544618518545 687.8510253053516 -1 0 0
17994 186 6 0 557.9891977856395 610.0715985456565 675.1050985968978 2 3 0
17995 186 13 0 559.9982694266971 608.0238364365113 677.9473236863402 2 3 0
14831 153 15 0 579.4402961405284 597.7858129376523 681.6578917762118 -1 0 0
14832 153 2 0 582.8631385005426 596.7334693857835 680.2013999121868 -1 0 0
14834 153 5 0.75 581.3717494645746 590.3907465543696 678.2280705465346 -1 0 0
14833 153 9 0 583.9527698526126 593.6131868851496 678.4425450012669 -1 0 0
14830 153 18 0 576.0298151789825 596.6631513747677 683.2503875403299 -1 0 0
18000 186 14 0 565.2955950455255 618.0693916178896 675.2211508082602 2 3 0
17999 186 2 0 562.9654198708986 619.4086149087511 677.9150868900549 2 3 0
17998 186 12 0 559.840171837467 617.7916458892375 678.8043146140927 2 3 0
14880 154 12 0 554.2266541989657 620.867686278124 676.189365618591 3 -1 0
17985 186 10 0 571.2443380507946 610.3530126533557 682.4879076132449 2 3 0
14819 153 12 0 564.2748140382625 612.1520003831947 688.39859722434 -1 0 0
17984 186 12 0 568.6084632945407 613.0773567615141 684.0214203206539 2 3 0
17983 186 13 0 569.1203445366984 616.6843465301682 684.7881512964478 2 3 0
14881 154 10 0 553.9871006693232 624.7788243965363 676.4814550359091 3 -1 0
17980 186 18 0 573.080937102864 618.9251397936887 692.9720594893413 2 3 0
17979 186 1 0 570.2217910656173 621.214475692833 692.175516953759 2 3 0
17981 186 17 0 572.5434234384428 615.3919579633496 690.96757566195 2 3 0
17982 186 2 0 571.7085851779723 616.698451716195 687.3011250333786 2 3 0
17997 186 12 0 560.0650297453907 614.6008642781468 680.1475181987826 2 3 0
17996 186 17 0 559.5974900686409 610.8464823705793 680.6348560011929 2 3 0
14882 154 18 0 551.951879114207 625.508230494408 679.7561719490819 3 -1 0
14883 154 6 0 551.9794319675337 628.886514821738 678.0104231769432 3 -1 0
18568 192 18 0 553.4623367812466 619.8460600460734 689.4256942845913 0 4 1
18567 192 10 0 556.5672243193383 617.4643560995415 689.9936383155872 0 4 1
18566 192 12 0 556.646132764665 616.5216397434976 693.8035911163047 0 4 1
18569 192 6 0 552.0530744679821 623.4064788475375 690.7591327443128 0 4 1
14884 154 9 0 553.5878207859276 630.4416278128971 674.9212816399411 3 -1 0
14879 154 13 0 551.738121949273 618.3854105548293 675.8779267889644 3 -1 0
17978 186 9 0 568.2317713630935 623.6003022645834 694.3383135097165 2 3 0
13668 141 2 0 599.412776985669 624.3678189057433 691.5276899150944 -3 -2 0
15695 162 17 0 580.3575062435377 628.5060115402752 675.971174515275 0 -1 0
15694 162 12 0 583.0747945237694 625.5122331349038 676.7346526989253 0 -1 0
15692 162 12 0 580.9278404580049 628.1470884215895 682.7154477412802 0 -1 0
15691 162 18 0 580.736335949353 625.1600950044486 685.2493880146372 0 -1 0
15693 162 2 0 583.4962522844356 627.3861989916232 679.9355987579456 0 -1 0
15690 162 18 0 582.5678447560598 626.6148160786247 688.4212589400124 0 -1 0
15689 162 12 0 584.6521751957015 623.4840677798165 690.2786800496964 0 -1 0
15687 162 2 0 587.8697859551412 617.4593675854702 690.2325891083161 0 -1 0
15688 162 10 0 584.9866052599762 619.7171259585901 691.5879808104033 0 -1 0
15685 162 17 0 590.0536774981942 613.4612143297865 693.4226286596917 0 -1 0
15686 162 9 0 591.2492643941058 616.1791618270812 690.8018493646836 0 -1 0
15705 162 2 0 587.8637660116192 627.8194856112989 692.9377113878232 0 -1 0
15703 162 18 0 587.305943253233 629.6127987289015 686.5464213372692 0 -1 0
13657 141 12 0 592.7360050202703 630.4520457277218 692.79680747511 -3 -2 0
13656 141 2 0 593.7410374124054 630.2013727172626 689.1044710065299 -3 -2 0
15704 162 15 0 588.4911481895733 627.6508846574493 689.366191092776 0 -1 0
13655 141 12 0 595.9306981870673 628.9787136803072 686.2335316288186 -3 -2 0
13669 141 9 0 600.6311405098626 626.9679290838973 693.7829670012948 -3 -2 0
12713 132 12 0 569.1604251909282 649.2076672203991 674.9950360485254 1 -3 0
13938 144 18 0 557.9219478213408 648.6350685190724 679.3449377280316 2 2 0
13937 144 2 0 561.1552219815536 649.6153800687263 677.6660852152204 2 2 0
13939 144 17 0 555.6060664655465 647.5169138281586 677.0129714145135 2 2 0
17547 181 15 0 549.5870589639936 642.488302471988 680.4436465884601 -1 2 0
14885 154 2 0 553.1785806178317 633.677579107611 676.6685197119372 3 -1 0
13923 144 12 0 564.5930341292843 637.8046463821123 675.0032789693215 2 2 0
17537 181 12 0 560.8250035629904 646.0681959491847 684.4832207881467 -1 2 0
17540 181 15 0 553.5407314814886 644.3468462521968 692.5602207575225 -1 2 0
17539 181 2 0 555.7140918097684 644.5031361641326 689.5053075717445 -1 2 0
17538 181 17 0 558.0458937673546 643.8742773335053 686.6248363691161 -1 2 0
17536 181 2 0 562.7789334593248 647.2317470305163 687.5330671766312 -1 2 0
17535 181 12 0 562.5443071892666 644.5807369209274 690.3570640260955 -1 2 0
17534 181 18 0 564.0769750102618 642.3227446549919 692.891152436455 -1 2 0
17546 181 18 0 550.1379753269471 638.9373710092882 681.7292413511046 -1 2 0
17543 181 18 0 552.0830343653182 636.1146065610629 689.6334575182115 -1 2 0
17544 181 17 0 552.9331961029663 638.5395451284398 686.8915445302127 -1 2 0
17548 181 2 0 550.2132315411706 646.124412012644 680.3189750733428 -1 2 0
17541 181 1 0 554.0293822001713 640.360416864236 693.0533380824783 -1 2 0
17542 181 11 0 550.6570941186943 638.9093631567825 692.4529045320658 -1 2 0
17545 181 12 0 553.6273208135976 638.9495351620303 682.8757552343042 -1 2 0
13940 144 9 0 552.4939683946232 646.1448808372405 674.995385012284 2 2 0
16785 174 18 0 597.8742876364656 635.973127907078 693.2238908329143 -1 0 0
13649 141 9 0 598.9987050974165 640.4573833286421 676.9828585645947 -3 -2 0
13651 141 10 0 597.7461969092714 638.0417650141143 682.5198984340715 -3 -2 0
13643 141 18 0 600.8708218102207 548.8904515990291 680.4984872316447 -3 -1 0
13645 141 1 0 596.2395795300782 647.3023763026489 679.1876337896083 -3 -2 0
13646 141 2 0 594.0117542266775 646.6006015575953 676.1516168702624 -3 -2 0
13644 141 13 0 597.632377795495 650.7383694416015 679.6877495885286 -3 -2 0
15697 162 15 0 582.0708158570095 634.6901054050944 677.5892126103611 0 -1 0
15696 162 2 0 579.8515529100374 632.290886858238 675.3687085632101 0 -1 0
15698 162 1 0 582.4254857037272 636.2229069964078 681.0173655815688 0 -1 0
13872 144 1 0 586.462493496714 634.7897069002212 675.050309081929 2 2 0
15707 162 5 0.75 583.1431696941828 630.9650000600394 694.6401826466658 0 -1 0
15702 162 12 0 589.3433361473828 630.81631426387 683.4637308466163 0 -1 0
15700 162 18 0 585.8424959022165 636.4204910679307 686.038617782496 0 -1 0
15699 162 11 0 582.3338371524126 635.9982571036691 684.8929512986846 0 -1 0
12709 132 20 0 575.834720170922 641.7811852849234 675.1440643013556 1 -3 0
13652 141 12 0 595.7390603851139 636.0218563560819 680.1939837581483 -3 -2 0
13650 141 2 0 599.0394784381244 641.0571150890817 680.637575289424 -3 -2 0
15036 156 1 0 591.4827203019079 646.0246941016892 691.6347406557362 -2 0 0
15701 162 17 0 588.7529967526484 634.297700351896 684.2802545497547 0 -1 0
15038 156 17 0 590.7708216759725 639.7853070515566 690.13492626087 -2 0 0
15042 156 12 0 580.1561372781226 645.9067089042167 684.4802272588382 -2 0 0
15040 156 10 0 586.7937140399911 643.2095289881551 686.164767143809 -2 0 0
15039 156 18 0 589.4361415635278 640.5372730116997 686.7078181261172 -2 0 0
15037 156 20 0 590.805316303979 642.6561592411465 692.6693368517252 -2 0 0
12708 132 1 0 578.0851424256357 641.4671687102242 678.1079879199584 1 -3 0
15044 156 17 0 575.5413882610411 646.1102217528453 690.6129881756044 -2 0 0
15043 156 12 0 577.4781379800703 646.0706068571536 687.6339985434453 -2 0 0
13653 141 18 0 596.5921211245948 632.4781415551074 681.401386160102 -3 -2 0
13654 141 18 0 597.2910635383734 632.1545532916351 685.1311078491332 -3 -2 0
15045 156 12 0 576.4366951765672 649.446652473509 692.4463747367736 -2 0 0
15041 156 12 0 583.4292361451023 643.707386941757 684.3271673018902 -2 0 0