LAMMPS data file via write_data, version 8 Apr 2021, timestep = 11390002

6208 atoms
40 atom types
6144 bonds
1 bond types

548.8454457994151 651.1545542005849 xlo xhi
548.8454457994151 651.1545542005849 ylo yhi
548.8454457994151 1265.009204607604 zlo zhi

Masses

1 131.199997
2 57.0499992
3 128.199997
4 101.099998
5 156.199997
6 71.08000180000001
7 115.099998
8 129.100006
9 163.199997
10 99.0699997
11 113.199997
12 128.100006
13 186.199997
14 147.199997
15 87.08000180000001
16 137.100006
17 114.099998
18 97.1200027
19 103.099998
20 113.199997
21 131.199997
22 57.0499992
23 128.199997
24 101.099998
25 156.199997
26 71.08000180000001
27 115.099998
28 129.100006
29 163.199997
30 99.0699997
31 113.199997
32 128.100006
33 186.199997
34 147.199997
35 87.08000180000001
36 137.100006
37 114.099998
38 97.1200027
39 103.099998
40 113.199997

Bond Coeffs # harmonic

1 9.6 3.81

Atoms # full

16687 173 17 0 550.2438474430128 567.6029099309231 690.5216555539315 0 3 0
16686 173 20 0 553.0087947153344 570.2332020005401 689.5769553704919 0 3 0
16685 173 1 0 555.7168275414398 571.0065631412109 686.9496719698035 0 3 0
16688 173 18 0 552.5770983889246 565.4501138333327 692.6133266904035 0 3 0
13967 144 4 0 580.247456303566 568.1540338789022 689.0439990271377 2 1 0
13966 144 8 -0.75 582.2239375833916 564.9162373882049 688.5687905893534 2 1 0
13964 144 2 0 579.4241282271674 559.0630109744936 687.8576126805059 2 1 0
13965 144 9 0 582.2562501504825 561.1202903874872 689.1690157335697 2 1 0
13963 144 6 0 578.6709455219053 555.9769214630878 685.7549897570614 2 1 0
15519 160 4 0 570.3972254864944 569.3329895356861 691.2201394107075 0 0 0
15520 160 12 0 573.8690549516442 567.9094271439644 689.5500953935166 0 0 0
13961 144 5 0.75 581.11799132183 552.172610128349 690.003376853 2 1 0
13962 144 10 0 577.9931946914423 553.2126766045645 688.0332274542212 2 1 0
13960 144 9 0 584.0826273077956 550.3524112092325 688.2102935292808 2 1 0
13968 144 12 0 579.4779730220916 571.609046563745 687.4547970003049 2 1 0
12417 129 1 0 644.2784227173 598.0179318277543 690.932714713966 -2 3 0
13806 143 12 0 552.7988135962751 563.2767361953025 703.1198460185777 1 0 0
13805 143 2 0 549.1612640117971 563.2254323007257 704.8215279809148 1 0 0
13807 143 9 0 554.0885562639724 559.8444017077952 702.4765717530425 1 0 0
13808 143 1 0 555.6390557890871 556.279598570208 701.7034954252157 1 0 0
13809 143 18 0 558.5763356800517 555.9311091367281 704.1471428474765 1 0 0
13810 143 17 0 560.3326941486752 552.5052626703514 704.0996250317382 1 0 0
13811 143 2 0 562.3532553052784 549.8087385394105 702.9042965648433 1 0 0
16690 173 12 0 557.5530705211537 568.3275849274596 696.3571872469603 0 3 0
16163 167 15 0 554.527613715141 569.3600104250484 713.2558595958106 0 -1 0
13812 143 13 0 566.1427475496181 549.1528244142931 704.7804807271049 1 0 0
15514 160 10 0 568.616646706956 570.1975633955511 706.6916143397491 0 0 0
16689 173 10 0 555.725777844739 565.4309039573182 694.5697839511986 0 3 0
16426 170 9 0 562.0289069484394 558.3529562617756 711.8926392788654 1 -1 0
16427 170 1 0 564.986777915179 556.0708289922297 710.5525467149022 1 -1 0
16428 170 18 0 568.8971136659312 556.515643036662 710.4140634715001 1 -1 0
16429 170 17 0 569.0639207227168 560.0315291666267 708.8165029671984 1 -1 0
16191 167 9 0 549.7406307418736 553.1506901787984 713.5395553088945 0 -1 0
16430 170 2 0 568.0777351544315 562.3621901076046 711.8134943929934 1 -1 0
16192 167 5 0.75 552.9465005915714 554.9035042239385 712.1012610541716 0 -1 0
16193 167 10 0 556.4162033865057 555.217692760238 713.4311008278006 0 -1 0
15518 160 8 -0.75 569.7149850794694 568.4241415417388 694.5236157550997 0 0 0
15517 160 9 0 570.2892958999819 570.9985837235035 697.5567117591622 0 0 0
15515 160 6 0 571.2073395857492 570.6444623958376 703.8170990299983 0 0 0
15516 160 2 0 572.0996066925076 569.2606370137212 700.2015225457822 0 0 0
16149 167 2 0 587.4884372595442 568.0892156169776 708.3252220569108 0 -1 0
16151 167 6 0 580.9223092303837 570.3796559655415 707.7407114739449 0 -1 0
16150 167 12 0 583.8797111742742 568.1047825631955 706.8510431086203 0 -1 0
15489 160 2 0 578.5449353565273 566.8667207661933 712.6017816551043 0 0 0
16148 167 9 0 589.8614987545909 564.8465736905879 708.5989288267648 0 -1 0
16147 167 1 0 590.6248961571858 561.6170218149445 706.8806078162806 0 -1 0
16146 167 2 0 592.8246693843707 560.6176078186124 704.156418042837 0 -1 0
16145 167 9 0 596.418875793434 560.8137628647661 702.8217800345685 0 -1 0
16144 167 6 0 597.276268974142 558.6262620278507 699.3348406995173 0 -1 0
16143 167 18 0 599.4177233533678 555.2451528111909 699.3165174108275 0 -1 0
16142 167 10 0 601.6727210156204 552.4513996805886 700.4047790093531 0 -1 0
16138 167 17 0 600.2412107521968 560.1060503825041 710.9464380226547 0 -1 0
16139 167 2 0 598.2479689761797 557.6524461450957 708.3777067680772 0 -1 0
16141 167 12 0 601.0501272356335 551.9683842194505 704.1323727151077 0 -1 0
16140 167 13 0 599.3262209169294 554.4449599317828 706.5639374223734 0 -1 0
17267 179 1 0 597.3075155149133 567.0468774538177 711.9863675830421 1 -1 0
14551 151 1 0 623.234277328351 570.1982372153288 713.1964780271248 1 2 0
13804 143 20 0 648.3183549908284 562.9602873541745 702.5736734099659 0 0 0
12444 129 12 0 633.6515284040662 570.6095346934695 708.1832922453596 -2 3 0
12445 129 12 0 631.2116042775787 568.005318133247 707.400632862477 -2 3 0
13803 143 12 0 645.3119443776075 560.6966788777087 702.6156097588964 0 0 0
16184 167 11 0 638.1690323695597 566.7851225685571 712.0500808805755 -1 -1 0
16479 170 18 0 640.3724853329745 549.5703996356824 710.9966340269348 0 -1 0
16480 170 15 0 639.4030808940475 551.0305887708535 707.5775689247894 0 -1 0
13802 143 12 0 642.4315456367625 558.2744987506582 701.0415102531584 0 0 0
13801 143 6 0 642.7866030759277 555.3039803282285 698.336681851308 0 0 0
13800 143 17 0 644.8333623358653 553.1790764690664 695.9990823636983 0 0 0
16185 167 18 0 641.5760340923081 565.355878558063 712.0765586165064 -1 -1 0
12448 129 12 0 631.5236238887226 569.1491207142127 698.5709012625623 -2 3 0
12447 129 2 0 631.1796501306824 566.1661834034661 701.1302326923518 -2 3 0
12446 129 20 0 631.471928152246 565.7848820050071 704.4247230399097 -2 3 0
13798 143 9 0 649.0520436017747 549.6909631721097 698.8892903060488 0 0 0
16187 167 12 0 645.9306859295455 559.9375533090179 709.9239009802299 -1 -1 0
16186 167 17 0 643.96238951341 562.4554567376857 712.7092509797213 -1 -1 0
16188 167 18 0 645.0917482454907 556.334349648618 711.2155136501983 -1 -1 0
16481 170 2 0 636.4884596994186 550.9066981452268 705.1155608240591 0 -1 0
16483 170 5 0.75 634.9166170881846 549.651736400445 697.6253718246413 0 -1 0
13799 143 2 0 648.349291721007 551.6596977116617 695.746822571152 0 0 0
16482 170 9 0 636.4473169778762 550.4170551247283 701.1008774254648 0 -1 0
13797 143 13 0 645.6510600671821 549.0381900390814 700.5236182101623 0 0 0
16693 173 17 0 554.1316703555738 573.2470389270328 703.9375884079714 0 3 0
16691 173 12 0 555.9774408365516 571.2129178277069 697.4919376382745 0 3 0
15513 160 5 0.75 566.5836308022491 572.4135911651209 709.1398772287295 0 0 0
16161 167 12 0 557.554411731063 574.7113202112939 709.8875309587883 0 -1 0
16162 167 15 0 555.2602658036783 571.5351895360324 709.8333524089115 0 -1 0
16694 173 12 0 553.5054614451362 576.4857017949838 705.0128628109455 0 3 0
16692 173 12 0 555.1741759108381 573.25656958148 700.2033999641147 0 3 0
16696 173 2 0 554.5352494231618 579.4544351158006 710.3002787530343 0 3 0
16697 173 9 0 552.3816042210756 580.8150985915422 713.3757139037169 0 3 0
15512 160 9 0 564.902334179902 575.8215057009916 709.6007852890754 0 0 0
15511 160 2 0 566.3492465773284 578.8266796102868 711.7556921877724 0 0 0
15509 160 18 0 566.9598720596582 583.6892170932656 708.9336933849289 0 0 0
15510 160 15 0 564.2739890028419 581.9691961253939 711.0521636550535 0 0 0
15502 160 2 0 564.8339460270801 592.9405732605775 708.3723729098348 0 0 0
15499 160 2 0 567.0818969267416 586.8880797881474 713.6112783130919 0 0 0
16160 167 4 0 557.8381359164763 576.4780083400373 713.4545703761836 0 -1 0
16695 173 20 0 555.707190666108 579.304990457281 706.7608933866252 0 3 0
15501 160 17 0 566.3839300843225 589.5612458077892 709.1654349866922 0 0 0
15500 160 12 0 567.7956861427208 590.3744109382994 712.4813438248822 0 0 0
16152 167 13 0 577.3155104410562 571.4685660232655 708.9648750386021 0 -1 0
15507 160 17 0 573.5024444771708 586.4114956799776 705.9497940612941 0 0 0
15508 160 12 0 570.1092072736768 584.742391906078 707.2162039820763 0 0 0
15506 160 18 0 573.4667473612094 588.3032277103291 702.8356622545183 0 0 0
15505 160 11 0 573.1744948286461 591.7966877612548 702.5010327106952 0 0 0
15504 160 1 0 570.0301720555734 592.4861058402374 704.7187556807274 0 0 0
15496 160 18 0 574.6210684826073 583.0524074954825 712.7806787227598 0 0 0
15497 160 18 0 571.9513419934995 586.1387718593978 713.5128675568337 0 0 0
16153 167 17 0 574.8665515845094 572.2277863716002 711.9110353951212 0 -1 0
17270 179 18 0 593.8597152944909 571.622046242867 710.9127940959934 1 -1 0
17271 179 10 0 594.636876946059 574.7419567065328 709.3927609856386 1 -1 0
17272 179 12 0 595.923881405404 578.4497482370889 709.1797697553509 1 -1 0
17273 179 12 0 597.1741654250662 581.3883095888414 711.0522748746312 1 -1 0
17274 179 12 0 596.8574326261232 584.1046525279236 713.4773717455075 1 -1 0
14586 151 17 0 609.9215323429077 587.8145847934804 704.046012692495 1 2 0
14585 151 18 0 607.3980478763582 588.3297899938141 706.7526203872167 1 2 0
14584 151 1 0 609.2453950591234 590.8549800340127 708.7425859671064 1 2 0
17275 179 17 0 595.4255194859045 587.6541843255186 712.5126082005389 1 -1 0
14589 151 12 0 617.8714652843845 586.8329608962221 706.1980375080875 1 2 0
14590 151 10 0 620.9402197856767 584.35814264194 706.0253670009382 1 2 0
14587 151 2 0 612.8832652472946 590.1489534598079 705.2062184036752 1 2 0
14591 151 18 0 624.4065698799573 585.1336275532476 704.8374820348855 1 2 0
12434 129 2 0 625.7515637566963 577.8413110062952 712.9950118886248 -2 3 0
12433 129 9 0 628.8674164825094 579.0882689577514 711.1591743313544 -2 3 0
14592 151 6 0 625.7592901868495 585.2077253079377 708.2602723444857 1 2 0
14593 151 9 0 628.5066481360378 586.0342324464065 710.8746587599593 1 2 0
12459 129 9 0 623.026003481087 592.2069585481727 709.12517479317 -2 3 0
12449 129 9 0 628.6193077915815 571.7575211018578 698.1461714441891 -2 3 0
12450 129 1 0 630.1519825967125 574.8495575059362 696.5961511238806 -2 3 0
12451 129 18 0 628.909405013426 578.4462332514537 696.9248325039574 -2 3 0
12452 129 17 0 630.4220570377614 581.731251034693 696.4231957958448 -2 3 0
12453 129 2 0 627.2706552009564 584.0139931424982 697.56804119164 -2 3 0
12454 129 13 0 626.6809005625029 587.7429478819478 698.0019783313852 -2 3 0
12456 129 10 0 627.8137388511371 589.5132450995725 704.7895401568156 -2 3 0
12455 129 12 0 626.529854044026 589.8270786932461 701.2707659882847 -2 3 0
14588 151 13 0 615.9527849418832 589.9664276025821 707.331299182628 1 2 0
14583 151 9 0 610.9519061669396 592.5616768225067 711.7160174560444 1 2 0
12457 129 18 0 628.9653526395379 592.670954524534 705.9005982637581 -2 3 0
12460 129 2 0 620.3345074545985 591.5692885723239 711.8785708502185 -2 3 0
12443 129 6 0 631.8912801063508 572.6551659568562 711.2768678530666 -2 3 0
16700 173 18 0 646.3787675043055 575.8925419765545 713.5393296981723 -1 3 0
12430 129 18 0 638.6656650963594 576.9839560729858 706.9527918686398 -2 3 0
12431 129 12 0 635.2214252175195 578.4767503467082 706.8235355103499 -2 3 0
12429 129 9 0 642.0235945966795 575.5497691041772 708.0425528418721 -2 3 0
12432 129 18 0 631.5195802369932 579.319966975938 708.2673510497996 -2 3 0
12428 129 2 0 643.5488744175024 579.0362412536878 709.2962492660969 -2 3 0
12427 129 20 0 641.7291167178646 582.2568219979325 707.6675621497876 -2 3 0
12426 129 12 0 640.7469747221471 583.8013605059817 704.1034148857307 -2 3 0
16175 167 18 0 638.1881852341053 585.6229833847867 713.6607606027868 -1 -1 0
16176 167 18 0 636.4809651889196 582.8456521201648 711.5386664226739 -1 -1 0
12425 129 17 0 643.2630893965519 586.4008848813108 703.5408939122465 -2 3 0
12424 129 12 0 644.1645242189667 589.7278028495838 705.5176226966053 -2 3 0
12423 129 12 0 643.9518728686278 592.6074152832321 707.8380796199891 -2 3 0
15503 160 15 0 567.6767191731519 594.8045526666255 706.5922646853144 0 0 0
13387 139 1 0 575.192138460969 611.5791265054096 709.7560175891836 -1 1 0
13388 139 20 0 576.7725814535466 608.2423311738615 711.1946924066789 -1 1 0
16394 170 1 0 584.8326045074496 599.3418457774254 713.5014665618243 1 -1 0
16397 170 18 0 576.270239967586 596.3555049436922 713.6808946800055 1 -1 0
16395 170 20 0 582.2748067697498 596.583632451336 712.7290098320955 1 -1 0
16396 170 17 0 579.0267409648538 598.3851548136612 712.1222905318745 1 -1 0
12458 129 6 0 626.5043218749092 593.6995863917764 708.7636924110504 -2 3 0
14582 151 12 0 612.1377893741345 596.2128302780208 711.8732361602159 1 2 0
14581 151 2 0 614.6401637716532 596.5552002762072 708.9656015022007 1 2 0
14580 151 20 0 617.9206917934713 597.8000577205335 707.1078937892352 1 2 0
14579 151 12 0 620.3054892440008 598.9102099942119 710.0739272783552 1 2 0
14578 151 12 0 622.9067993834224 601.3587738524149 708.5399196435213 1 2 0
14577 151 6 0 623.6957334793328 603.3865424407498 711.8789077328979 1 2 0
14575 151 2 0 624.7047683179364 597.5691014012474 713.3071992207285 1 2 0
12421 129 10 0 643.9534705005711 596.628494184181 703.8529182213048 -2 3 0
12419 129 17 0 643.7946204158736 600.884393321349 697.6031559929073 -2 3 0
12420 129 18 0 643.5616500025951 598.3436545797448 700.2660100120656 -2 3 0
12422 129 12 0 645.5983102194265 595.8251221303042 707.3852246806921 -2 3 0
12418 129 20 0 643.7116237686928 600.2969808306125 693.9409189407968 -2 3 0
16425 170 12 0 561.462261383676 559.9460407304899 715.0885414607324 1 -1 0
16423 170 20 0 559.5419105797122 563.5101909714529 720.3198150946339 1 -1 0
16424 170 2 0 561.9691849442656 562.6717417892183 717.5826564003437 1 -1 0
16436 170 9 0 559.8008706219244 567.8408938700337 726.3363566595912 1 -1 0
16435 170 6 0 561.3192796973932 569.5628695279447 723.0790341865608 1 -1 0
16437 170 2 0 562.2247195188611 565.4625106385041 727.7157172595761 1 -1 0
17515 181 14 0 566.2537408969499 559.4336005795473 719.9290694986693 -1 1 0
16422 170 12 0 556.2882375089274 562.0491275468049 721.8890217840941 1 -1 0
16438 170 1 0 563.5814345206403 562.93628576004 725.266525029216 1 -1 0
16196 167 9 0 560.231968699358 556.287714602778 723.4845463051544 0 -1 0
16197 167 8 -0.75 558.5273927493025 557.0065963655437 726.9662590230723 0 -1 0
17516 181 17 0 566.2991615931252 556.7864075812467 717.447750939008 -1 1 0
16195 167 2 0 559.3625115259539 557.7204603799872 720.034033808425 0 -1 0
16419 170 17 0 553.026989764503 566.7153388887484 730.4278722975292 1 -1 0
16431 170 13 0 567.6029284752907 563.7033795911204 715.2672653607498 1 -1 0
17511 181 17 0 568.1583777027561 566.3929273198087 727.9405971923486 -1 1 0
17517 181 12 0 565.8868222496599 552.904726510573 716.0723163382949 -1 1 0
17518 181 4 0 563.143352021578 550.0590631783657 716.56288261214 -1 1 0
16421 170 12 0 554.6466564329968 561.9127942990316 725.0186946306102 1 -1 0
16420 170 6 0 552.3842908185125 564.4461689793352 727.3993309504193 1 -1 0
17533 181 18 0 552.9108645475499 553.5285857098181 723.7452549288884 -1 1 0
17510 181 13 0 566.7065310717721 569.7736557605836 726.4248524884571 -1 1 0
16165 167 18 0 555.7855274094807 569.5560394514712 719.8878070611765 0 -1 0
16164 167 6 0 556.6892855703402 570.2288624026606 716.0445324300247 0 -1 0
16418 170 2 0 553.9189170343784 570.461394651277 730.7804401526066 1 -1 0
16198 167 4 0 559.1631554269237 559.6758135949925 729.9001192696937 0 -1 0
16199 167 12 0 555.8128682177412 560.3701387560708 731.469333329799 0 -1 0
16439 170 9 0 565.1386177487442 560.4923705498684 727.7204103808803 1 -1 0
17521 181 15 0 566.9553234530895 552.7945543794399 721.9361417434355 -1 1 0
17532 181 12 0 553.0524188395202 552.9024337217519 727.2830901263319 -1 1 0
17534 181 18 0 550.871484392249 554.0848425185587 720.7472274403194 -1 1 0
16704 173 13 0 549.2424863988883 564.9705060777803 718.9503999290926 0 3 0
16433 170 10 0 563.0963330806945 567.9216851667959 716.5832832861668 1 -1 0
16434 170 18 0 561.796993577746 570.3498678728845 719.0545518860581 1 -1 0
16432 170 12 0 565.9674360136493 567.3299044194437 714.3830667511043 1 -1 0
17522 181 6 0 567.3780253584821 555.4156864082997 724.7584440995433 -1 1 0
16442 170 6 0 564.5206529402049 563.2691937537016 734.1951376477678 1 -1 0
16440 170 2 0 564.9612515396047 558.315663892944 731.2166677197744 1 -1 0
17524 181 13 0 563.5874525341527 550.7162357073333 729.3323585972183 -1 1 0
17523 181 18 0 564.8081392053411 553.4684908044029 727.3127134024119 -1 1 0
17519 181 12 0 561.350688535923 549.4955043169875 719.6545459620046 -1 1 0
17531 181 10 0 552.7966177137722 549.7150078261722 729.5775521751902 -1 1 0
16194 167 6 0 557.4527639756509 556.6829028453914 717.0168480199484 0 -1 0
17520 181 15 0 563.4132034093292 551.7622872561313 721.9202031744097 -1 1 0
15485 160 6 0 574.3099718077684 556.6287354486985 717.8419231215084 0 0 0
15486 160 18 0 574.6306853987631 560.1787347994662 717.7668713459562 0 0 0
15484 160 15 0 574.8370064372546 553.7632747989985 720.3934037266449 0 0 0
17512 181 12 0 570.4568340606211 564.3786876467799 725.8350927525728 -1 1 0
17513 181 12 0 572.3755964678276 561.771578191713 723.707385951477 -1 1 0
17514 181 2 0 569.6979131935394 559.6510564083861 721.3436461884594 -1 1 0
15490 160 18 0 580.4420429667476 569.7317544007292 713.9607311566024 0 0 0
16125 167 13 0 579.8345484466364 563.0121587309447 728.3176123036378 0 -1 0
16127 167 2 0 577.9368544619318 563.514735212508 722.9469450862706 0 -1 0
16126 167 9 0 577.7610688523471 565.5381102891405 726.3171758317554 0 -1 0
16128 167 17 0 580.9892526597632 561.9520802888976 721.9794618544748 0 -1 0
16129 167 6 0 581.971025898627 557.9350055020916 721.5236163414667 0 -1 0
16130 167 12 0 584.9774472880459 556.7471493329555 723.4271818348141 0 -1 0
17286 179 13 0 585.2550909806827 569.1167349925728 723.8624671493153 1 -1 0
16131 167 12 0 588.4514484157602 558.117969648086 723.5114357027793 0 -1 0
17287 179 2 0 585.9553839887496 568.4387876606417 727.4159036533878 1 -1 0
15488 160 1 0 577.765511108743 563.1393225238043 713.7971820531291 0 0 0
17288 179 12 0 584.9543616236896 567.5885903616888 731.4206814431764 1 -1 0
15487 160 13 0 575.8198571510117 563.7244848048396 717.2630418150758 0 0 0
16120 167 2 0 569.4873457912697 550.9724902541384 727.4172584456032 0 -1 0
16124 167 12 0 578.4453796318111 560.543536350845 730.7728178847136 0 -1 0
17285 179 12 0 586.6529842866012 568.7264706486749 720.3130819638067 1 -1 0
17289 179 13 0 585.8530882188168 563.8271877330563 732.320931607506 1 -1 0
16121 167 12 0 570.5479298880124 553.9832082238557 730.1201585965739 0 -1 0
16122 167 13 0 573.7159606185182 555.5126202530068 729.3772240245963 0 -1 0
15483 160 15 0 577.6145868322786 552.0765721006651 722.4176015242898 0 0 0
15482 160 12 0 581.3359823595556 551.5846502813386 722.1740553396507 0 0 0
16123 167 2 0 576.890498835904 557.4756638334692 729.11249848715 0 -1 0
16132 167 20 0 589.9938753956583 560.9496449175306 724.8245500734771 0 -1 0
15471 160 12 0 598.0674074616604 550.0067971077773 724.0871134604348 0 0 0
16136 167 1 0 596.8920549064021 558.6399816292466 716.6327303729846 0 -1 0
16137 167 18 0 600.2897081117834 558.4737990816119 714.498158514118 0 -1 0
16133 167 2 0 593.6697876337114 559.2941235470606 724.6593003114097 0 -1 0
16134 167 12 0 593.4221719574 559.056645569366 720.7930621733947 0 -1 0
16135 167 9 0 594.5962124892435 561.3318320837388 717.6571615318585 0 -1 0
17475 181 12 0 599.0280161143796 570.8571394447858 720.7800598172938 -1 1 0
17476 181 18 0 595.3285565357743 568.9931739977033 721.1279657834833 -1 1 0
15470 160 2 0 595.0848008122094 548.9009300340016 725.5010679575971 0 0 0
17268 179 20 0 595.3432674400727 568.1969049025837 714.6169972543588 1 -1 0
14554 151 18 0 617.4940678613899 567.7423391738037 719.5933155483007 1 2 0
14556 151 12 0 611.6618472078537 567.48167137908 722.5256249401148 1 2 0
14555 151 10 0 613.8202141148123 566.5840107584537 719.4360571860802 1 2 0
14643 151 2 0 625.9969632264983 560.9825568694782 725.8480110840648 1 2 0
14644 151 9 0 629.3361683256588 559.1690340760999 724.8097268113512 1 2 0
14642 151 6 0 626.7225801636499 564.1311068874096 727.9324816723775 1 2 0
14641 151 10 0 623.2395139766774 565.1231264971262 728.9801896565821 1 2 0
14647 151 12 0 624.4471111223478 552.948171586931 721.9475130756465 1 2 0
14646 151 4 0 624.7986988834268 556.3391325492954 721.6961889752874 1 2 0
14645 151 8 -0.75 628.6185801777208 557.5320341988906 721.4953715961649 1 2 0
14552 151 20 0 620.7448666499379 570.1847757502491 715.6658317284388 1 2 0
14557 151 12 0 612.0440173265013 569.1037221037423 726.1222682260601 1 2 0
14640 151 5 0.75 622.5320791799054 563.8326170617383 732.8439947124235 1 2 0
14607 151 12 0 611.6094819019831 562.8107520064998 733.9327587296966 1 2 0
14606 151 17 0 614.2697087565415 565.3320085562223 733.0356454096269 1 2 0
16476 170 18 0 635.6763245902871 553.2158428498416 714.3092276686933 0 -1 0
16475 170 11 0 633.7542270799033 556.2612623354978 714.8885166607125 0 -1 0
16477 170 17 0 637.4087564745502 550.4684705241298 716.1752405716045 0 -1 0
16183 167 1 0 638.9474199361288 569.4653881514727 714.8570150643767 -1 -1 0
16190 167 2 0 649.3789069606515 555.1171251837322 715.2328661774353 -1 -1 0
16189 167 15 0 645.8149530886817 556.2222801730476 714.926341038524 -1 -1 0
17535 181 12 0 649.5382593033016 553.6247071625928 721.375418591462 -2 1 0
17536 181 2 0 646.4531368916378 555.3360600342559 720.9213904634765 -2 1 0
17543 181 18 0 644.777146604216 549.8015314211009 724.1147736262762 -2 1 0
16703 173 12 0 648.3047029095247 566.3572687580898 717.3744712307032 -1 3 0
16706 173 12 0 649.2355664379897 566.0869096699212 725.3454830219789 -1 3 0
16705 173 2 0 650.2652163420545 563.86244972939 722.3037077588355 -1 3 0
16708 173 9 0 647.3313638906861 566.2211107050049 731.8101385091145 -1 3 0
16707 173 13 0 648.2810329389206 568.3739661695375 728.7156042936178 -1 3 0
16474 170 1 0 635.7123714298423 559.468005453326 716.0464955110733 0 -1 0
16472 170 2 0 639.212986532546 560.7736590274452 721.3857223939083 0 -1 0
16473 170 15 0 639.2104617221675 558.5881151049837 717.8719067916774 0 -1 0
16471 170 17 0 637.3881507660103 564.1341738644392 721.5022642973371 0 -1 0
17538 181 17 0 644.1461421448826 559.5273255029633 723.948313298653 -2 1 0
17541 181 1 0 640.620419076674 555.001473433618 724.4185765904184 -2 1 0
16470 170 12 0 634.5491581361275 565.0920755649252 723.6411156063928 0 -1 0
16469 170 2 0 635.3638383022262 566.8606274799164 727.0288002158139 0 -1 0
17540 181 15 0 639.18103631473 558.1581777694267 725.3089930361305 -2 1 0
17542 181 11 0 642.2339368263558 552.0833010798999 725.7245462423922 -2 1 0
17537 181 12 0 647.1145257020555 559.043886281408 721.7460796645556 -2 1 0
17539 181 2 0 641.8655706459075 559.7604669714333 727.0600865339164 -2 1 0
16702 173 2 0 646.9402054709776 568.8724072608397 714.7145608947956 -1 3 0
16468 170 12 0 638.7620487778977 568.2288039718346 727.4581439354741 0 -1 0
16467 170 18 0 640.2561986148372 570.1558817610587 730.4332755512884 0 -1 0
16159 167 12 0 560.0655556917942 578.8812880992108 715.7188755739121 0 -1 0
16698 173 18 0 549.5121804551327 578.5179831021112 713.7115008460527 0 3 0
15498 160 12 0 569.2917683182002 584.8932682081758 715.8128558014128 0 0 0
16170 167 17 0 549.6670178772446 580.8711207258252 718.8174734479226 0 -1 0
16158 167 17 0 561.5517825774276 576.1999853199118 718.355641111558 0 -1 0
16417 170 9 0 556.5634770193554 571.2535641310212 733.3083411200755 1 -1 0
16166 167 13 0 553.6100794773267 571.3097868148084 722.2810441454785 0 -1 0
16156 167 2 0 567.4707410029725 573.0477187231231 719.9644542360498 0 -1 0
16157 167 14 0 564.6072478022486 575.6001775363176 720.1003567907151 0 -1 0
17494 181 1 0 558.2360579049365 580.3680057522694 728.6264869816392 -1 1 0
17491 181 2 0 554.7891258061718 585.2053818558712 724.9647979554051 -1 1 0
17492 181 12 0 552.3710226167294 583.4671426359386 727.7948234494474 -1 1 0
17490 181 20 0 557.3406897673573 583.3270809871849 722.8681498719804 -1 1 0
17493 181 9 0 555.3848127433073 582.3113848662891 730.3646727284471 -1 1 0
17495 181 18 0 561.8042450490284 579.710440487083 728.7859780166986 -1 1 0
17487 181 6 0 567.1366104927001 581.5093779317508 725.3078143057372 -1 1 0
17486 181 17 0 569.0883770970785 578.4465365492194 723.9788888125312 -1 1 0
17489 181 12 0 560.776235394354 583.0026855939672 721.577151057418 -1 1 0
17488 181 12 0 564.0031541698222 581.4654272386679 722.6758028680482 -1 1 0
17509 181 6 0 565.9689416020631 572.220287343563 729.1049190555083 -1 1 0
17508 181 12 0 566.1132357787792 572.5981283510392 732.66540940248 -1 1 0
16167 167 1 0 550.2754836697168 571.8618202078867 720.6798556282989 0 -1 0
16405 170 2 0 564.7474451911944 589.4485111243738 733.0642951305423 1 -1 0
16404 170 20 0 566.1996658085674 592.9286140010325 733.0960907653633 1 -1 0
14359 149 17 0 559.6442350526686 592.403450588643 729.1256873491049 -2 0 0
17496 181 17 0 563.3239250203413 583.1832240668224 728.9903970511372 -1 1 0
17497 181 2 0 566.6615366597975 582.0819218263998 730.4687482441237 -1 1 0
16406 170 9 0 562.097465573295 586.9869801791192 733.80582842756 1 -1 0
16168 167 2 0 550.297957393321 575.3986165907103 719.6722909558205 0 -1 0
14363 149 12 0 550.7318684765321 589.2050686597493 729.5412243954992 -2 0 0
14358 149 20 0 560.5063545954013 592.9726396335326 725.5099536225232 -2 0 0
14357 149 1 0 558.1872644774878 591.6633733126885 722.9623827333762 -2 0 0
14362 149 12 0 554.0874783392483 590.0038171778403 728.1130085384499 -2 0 0
16416 170 13 0 558.5961264580227 574.7926221549093 732.3417807215068 1 -1 0
17498 181 13 0 568.0697701388809 579.2277079493265 732.6140720922241 -1 1 0
13902 144 2 0 577.3569766362086 572.7114359774238 726.2741079482771 2 1 0
15491 160 17 0 580.8226759748022 572.0218028009351 716.8031490068424 0 0 0
16154 167 12 0 572.9014164808589 571.9887469504482 715.4261564585984 0 -1 0
16155 167 12 0 570.2434395249173 572.679590470564 717.4472709852963 0 -1 0
13901 144 20 0 580.7731076235608 572.9598797827032 728.478797628447 2 1 0
13900 144 12 0 579.0119390646784 575.0511040020318 731.801054125275 2 1 0
14777 153 9 0 570.618688938693 587.4697320177324 728.2596023082759 -1 0 0
14776 153 12 0 569.5089773922837 588.9069496050058 725.0201893104751 -1 0 0
17485 181 2 0 571.950462682919 578.2629010330094 726.910863424757 -1 1 0
15493 160 2 0 577.9421398103552 575.6442847734141 717.8182656768342 0 0 0
15492 160 9 0 578.6134587494001 572.7830059728523 719.5667842347646 0 0 0
14775 153 2 0 573.1043471913075 588.6415478707205 723.1569975254096 -1 0 0
14774 153 20 0 576.2443465640107 589.1564424659744 721.1410062254123 -1 0 0
14773 153 12 0 577.6137889125874 592.4854854677909 722.6970921345585 -1 0 0
15494 160 10 0 577.0992393857576 579.3379196703011 716.74584576393 0 0 0
17282 179 18 0 584.7358872864149 575.9902558252202 715.7732667330291 1 -1 0
17283 179 9 0 587.3825862748915 573.6409260149791 714.8981664888171 1 -1 0
15495 160 12 0 573.6990995530803 580.955609495237 716.0115688771137 0 0 0
17284 179 2 0 586.906316286096 571.2736730870395 717.5551544786372 1 -1 0
17281 179 12 0 585.0666134432852 579.9805086790678 716.1482273262876 1 -1 0
17481 181 2 0 585.2613767061914 580.3779345492286 723.7760944979092 -1 1 0
17482 181 12 0 581.5760034357874 581.402637263862 722.7410521720997 -1 1 0
17484 181 9 0 575.6047192769104 579.5783293967002 726.6780229376593 -1 1 0
17483 181 13 0 578.2822415408468 580.2778593019684 723.9017467089536 -1 1 0
17480 181 13 0 586.1430458327412 576.5200609863915 723.1471524292152 -1 1 0
17479 181 12 0 588.8347466748814 575.0080411627567 725.5991108585373 -1 1 0
13895 144 9 0 585.3611137800756 577.5076063841329 731.5944696047047 2 1 0
17304 179 13 0 578.8583727882074 587.190816535794 728.3694331540922 1 -1 0
17303 179 2 0 578.0523429819963 587.2623908023811 731.9401970430442 1 -1 0
13896 144 2 0 583.6371397373275 581.1548891663458 732.7386955807331 2 1 0
14763 153 12 0 584.9428678012816 591.0829328904726 731.8381049154872 -1 0 0
17306 179 10 0 586.120429898627 586.258235771444 728.0273635555573 1 -1 0
17305 179 12 0 582.2314045039296 585.8268120396906 727.4061553614586 1 -1 0
13898 144 6 0 578.7361025311939 580.1582215142803 734.019779138501 2 1 0
13897 144 17 0 580.2085939190031 581.0589334320081 730.8689202949673 2 1 0
17280 179 18 0 585.5190547199535 582.3621137508297 718.9496920848986 1 -1 0
17279 179 9 0 587.5818234939763 585.2614693235089 719.602965773279 1 -1 0
17307 179 18 0 588.8646566529071 585.7554195849997 730.1312536114299 1 -1 0
14771 153 6 0 574.6352468275477 592.2547421454982 728.0282362601727 -1 0 0
14770 153 17 0 575.4079881863883 592.4929444097139 731.6559203073806 -1 0 0
13903 144 12 0 574.0381465987524 573.0055855647869 728.5107300128816 2 1 0
13904 144 9 0 573.4571603190935 571.4136116982867 731.8182479138604 2 1 0
14778 153 1 0 569.4531750069661 587.8825264982595 731.7544729183518 -1 0 0
17302 179 17 0 581.0322347630914 585.9992052199449 734.2868099403909 1 -1 0
13894 144 13 0 586.9963047965332 574.8361002263896 734.1485112911306 2 1 0
17277 179 20 0 591.0301139291664 590.8891083667068 717.5863616348294 1 -1 0
17269 179 17 0 593.7121413106389 571.5827502207583 714.6990012709583 1 -1 0
17474 181 18 0 601.8779038171913 572.9644429465905 720.5950149292876 -1 1 0
17473 181 9 0 604.3124809810645 576.0989092358108 721.5225556659902 -1 1 0
17472 181 2 0 602.2106962461105 579.5291894889154 721.6613927121814 -1 1 0
17477 181 9 0 592.4685375525451 571.1583722141124 721.8725847202452 -1 1 0
17463 181 17 0 599.2657374416654 584.4701657923699 730.448475100016 -1 1 0
17278 179 2 0 589.8831511907249 588.301140573348 720.1905766507635 1 -1 0
17471 181 20 0 599.1935565340722 580.1398123241228 723.9658183275907 -1 1 0