LAMMPS data file via write_data, version 8 Apr 2021, timestep = 11390002

6208 atoms
40 atom types
6144 bonds
1 bond types

548.8454457994151 651.1545542005849 xlo xhi
548.8454457994151 651.1545542005849 ylo yhi
548.8454457994151 1265.009204607604 zlo zhi

Masses

1 131.199997
2 57.0499992
3 128.199997
4 101.099998
5 156.199997
6 71.08000180000001
7 115.099998
8 129.100006
9 163.199997
10 99.0699997
11 113.199997
12 128.100006
13 186.199997
14 147.199997
15 87.08000180000001
16 137.100006
17 114.099998
18 97.1200027
19 103.099998
20 113.199997
21 131.199997
22 57.0499992
23 128.199997
24 101.099998
25 156.199997
26 71.08000180000001
27 115.099998
28 129.100006
29 163.199997
30 99.0699997
31 113.199997
32 128.100006
33 186.199997
34 147.199997
35 87.08000180000001
36 137.100006
37 114.099998
38 97.1200027
39 103.099998
40 113.199997

Bond Coeffs # harmonic

1 9.6 3.81

Atoms # full

16107 167 10 0 588.6271412558262 569.0413301217994 663.0347070924346 0 1 0
16108 167 12 0 584.7662507089539 567.8590013583026 663.0454505284762 0 1 0
16106 167 18 0 590.4774986381101 571.5597321725733 660.8644578190027 0 1 0
16105 167 17 0 592.1839534472451 575.0701281107804 661.0496259785258 0 1 0
16103 167 1 0 597.752211445532 574.9508719976233 657.1896795977553 0 1 0
16104 167 20 0 595.0172994835232 576.7875026489676 658.9475730830989 0 1 0
16112 167 12 0 579.7951454304415 567.4186811333709 674.5137127062395 0 1 0
16109 167 12 0 582.527233517053 567.9208299613873 666.5073060016779 0 1 0
16115 167 9 0 578.4764770841152 568.3824198725549 684.145213109294 0 1 0
16139 167 2 0 570.0758241760055 588.5817944044725 682.3769468385932 0 1 0
16111 167 17 0 581.0685853587623 570.1611276355613 671.7006992195501 0 1 0
16110 167 12 0 579.8970785301871 570.1920611132145 667.9005387977675 0 1 0
16113 167 20 0 580.4047067193264 569.6807017648131 677.6920676062855 0 1 0
16114 167 2 0 577.711920291258 569.4885767673711 680.3796830272737 0 1 0
16137 167 18 0 572.6525299925039 583.62998667537 685.447442594574 0 1 0
16138 167 17 0 572.2635354298619 585.5609361874035 682.2898147500907 0 1 0
16140 167 13 0 569.437401166463 591.7233219984712 684.9229354658688 0 1 0
16141 167 12 0 573.1554465720543 593.4011681162674 685.1938490783394 0 1 0
13360 138 10 0 604.3042857798491 596.2927322518304 685.1784524490768 -1 0 0
13470 139 17 0 566.6414000196962 565.4460134795333 698.7910599857598 0 -2 0
13469 139 18 0 563.4143716150139 566.1406958305471 700.1999791090954 0 -2 0
13471 139 12 0 567.6080084405947 561.8101001118464 697.8772622145874 0 -2 0
13472 139 18 0 565.712984041031 558.7013245875017 698.8682457534981 0 -2 0
13473 139 15 0 562.9876436861794 558.6077788292163 701.4648482641925 0 -2 0
13482 139 4 0 564.9992667809349 550.975620929244 702.6528875681944 0 -2 0
13483 139 12 0 565.7181589417802 552.8495229640029 699.5570713599374 0 -2 0
13468 139 11 0 563.3905644554443 565.6889556501618 703.7792277612 0 -2 0
13474 139 2 0 560.2867161524614 556.6333188335698 703.273887536332 0 -2 0
16092 166 15 0 550.4488888307642 553.1512692735681 704.9122689704164 1 0 0
17002 176 6 0 575.5571811396765 559.4244178581196 702.5261404314027 2 3 0
17003 176 12 0 579.5289213485356 560.3024444144056 702.5448517582417 2 3 0
17004 176 12 0 580.5640991596077 563.0245139473565 700.097347519343 2 3 0
17005 176 20 0 578.6963222732022 565.6092059193095 698.0477929516989 2 3 0
17006 176 2 0 578.2682324828764 568.281876604124 700.7342994419668 2 3 0
16441 170 12 0 583.9636555366644 567.7318096682002 702.6736909550651 0 1 0
17000 176 2 0 571.2810214984096 559.4020662001121 704.3767996165512 2 3 0
17001 176 17 0 572.5271811089926 561.9050035084132 701.8560706480488 2 3 0
16977 176 20 0 576.1534033713098 552.1056993415935 702.8741021897083 2 3 0
16976 176 1 0 573.077795689565 552.4134585754256 700.5869704374711 2 3 0
16477 170 17 0 612.2478120148752 568.5205026263552 703.7155383576267 0 1 0
16483 170 5 0.75 605.2881832521562 561.0089225188755 703.200384650239 0 1 0
16474 170 1 0 603.9082390957077 568.9002733689638 702.7705818433861 0 1 0
16473 170 15 0 600.4759657690478 568.6654882324176 702.3244412575482 0 1 0
16481 170 2 0 612.5739246456294 559.546758316856 703.8293851755845 0 1 0
16482 170 9 0 609.1213408016492 561.4183695911996 703.6991552345104 0 1 0
16479 170 18 0 613.6937271249574 563.2072335915103 699.999479723525 0 1 0
13629 141 6 0 604.0592332125466 651.1318362587593 704.773491244139 1 3 0
16394 170 1 0 596.8119007761617 557.5807122572695 701.164603847864 0 1 0
16395 170 20 0 596.5802083131641 554.3828688598308 703.4038140158457 0 1 0
16396 170 17 0 596.5687514415823 550.7969441067271 705.0169685879399 0 1 0
16136 167 1 0 570.6749296938253 585.4329374443545 688.3813651938266 0 1 0
16128 167 17 0 568.520944718342 580.0815497400271 700.7030926201126 0 1 0
16124 167 12 0 567.8761986904947 579.2736678595458 693.099694977387 0 1 0
16122 167 13 0 565.3658340862734 573.4275743848901 690.6639447930072 0 1 0
16129 167 6 0 569.9443044611147 583.5692131826022 701.1324415288644 0 1 0
16121 167 12 0 568.707428468386 572.913686316674 692.0514693442342 0 1 0
16123 167 2 0 565.5236292827798 577.4729496456325 690.5967246211983 0 1 0
17010 176 18 0 569.9307187295 574.9425836505027 705.1230373668246 2 3 0
16116 167 18 0 577.6569224989101 570.4826645889137 687.187738206352 0 1 0
17007 176 12 0 576.5092106599024 571.4581027803796 701.2986138319131 2 3 0
16117 167 12 0 578.6050040373636 573.3813473677926 690.0737137124635 0 1 0
17008 176 9 0 576.5193461759345 574.3045759509018 704.0211376688952 2 3 0
16125 167 13 0 571.3748295556418 577.9798719607511 694.1585598186352 0 1 0
16126 167 9 0 573.8771146922501 577.564827990896 697.5646734108974 0 1 0
16127 167 2 0 571.7930718452529 578.3849426889075 700.757593564841 0 1 0
16131 167 12 0 577.2461840692372 586.2569312271452 699.9467730648107 0 1 0
16132 167 20 0 579.2256023853841 585.7707902871217 696.8435502393194 0 1 0
16130 167 12 0 573.5064186506213 585.4805004388738 700.6949756947782 0 1 0
16442 170 6 0 586.8827276972087 570.0193705654809 701.3300635600377 0 1 0
16134 167 12 0 575.5350694072263 585.210007673829 692.8505124964561 0 1 0
16135 167 9 0 572.7829351287517 587.0714260588016 690.8711198520209 0 1 0
16133 167 2 0 577.663815369774 582.3474488215531 695.0208058153293 0 1 0
16118 167 18 0 577.3636467226997 572.2529252122382 693.4256086312263 0 1 0
16119 167 9 0 574.5490898131815 569.9318457395332 694.5388715367085 0 1 0
16120 167 2 0 570.7566473722948 569.9088468450931 693.5140626967823 0 1 0
16444 170 17 0 583.4098043765024 574.501942603893 700.9829030256418 0 1 0
16449 170 17 0 590.2644994778038 583.5982581065108 700.5616672240876 0 1 0
16450 170 12 0 590.2889374220374 586.850106203807 702.9781860145405 0 1 0
16451 170 4 0 587.8966912900247 589.315738048917 705.0037286575983 0 1 0
16443 170 13 0 587.3872383180363 573.6407151749773 700.7287175528522 0 1 0
16445 170 12 0 581.8563064237136 578.3045387754125 700.594056252706 0 1 0
16447 170 2 0 585.5706178407208 581.0652851523596 704.5035816683544 0 1 0
16446 170 12 0 581.5822055271304 579.7023760845843 704.0180528580177 0 1 0
16448 170 14 0 588.443676749045 580.6431897904242 702.3641903672592 0 1 0
16475 170 11 0 605.7556947278464 571.9122415655343 704.075991541268 0 1 0
16476 170 18 0 609.0406003085403 570.3145302458403 703.4243775998971 0 1 0
13366 138 12 0 605.9769532468808 586.7860497089454 690.461876426667 -1 0 0
13365 138 2 0 608.1017015341723 589.6753855571341 689.5556940822343 -1 0 0
16472 170 2 0 598.4887946119138 572.1545942152148 702.1350068035744 0 1 0
16471 170 17 0 600.7349993552168 574.9043628137343 701.9115926610071 0 1 0
13368 138 2 0 607.9232544889084 583.0067277246612 694.5396739385593 -1 0 0
13367 138 17 0 609.0431773495483 584.7972197823744 691.476272758065 -1 0 0
13371 138 11 0 601.4621375845412 583.8787203183535 699.7812795781463 -1 0 0
13370 138 1 0 602.1127752060709 580.2473174277181 698.1304494633935 -1 0 0
13369 138 15 0 605.2987728820528 580.4562734198254 696.0480874859329 -1 0 0
13372 138 18 0 601.3482494712974 582.9853893497261 703.4562959452918 -1 0 0
16470 170 12 0 599.0806363215374 577.9955036940182 703.3868650825423 0 1 0
13373 138 17 0 604.0819522894806 585.1833849845729 704.4701681208298 -1 0 0
16193 167 10 0 557.0607637505454 600.4927011770853 702.1784280323836 0 1 0
16198 167 4 0 562.3778794528173 598.1303641595466 696.8278619248102 0 1 0
16197 167 8 -0.75 565.859465074063 597.116624485251 697.3949132023289 0 1 0
16196 167 9 0 566.9086503772586 596.4303157124361 700.5882551810934 0 1 0
16199 167 12 0 561.0775234253842 601.7935437234905 697.3679100482786 0 1 0
16194 167 6 0 560.7472553576135 599.788409436234 703.2880670293185 0 1 0
16195 167 2 0 563.9350807517876 597.3707066801813 703.5433456758783 0 1 0
16192 167 5 0.75 554.7102735699895 599.2135255295374 699.3146141959193 0 1 0
16190 167 2 0 554.4726800086777 602.9006380395963 693.3388763124897 0 1 0
16191 167 9 0 554.1437410808026 599.8709732729493 695.649200503149 0 1 0
16189 167 15 0 551.2590684389772 603.5355508121554 691.5222409922485 0 1 0
16188 167 18 0 551.1755020921039 607.1014791227087 690.3726428554808 0 1 0
16187 167 12 0 548.9901748311286 607.8481706752666 693.1430789701042 0 1 0
16165 167 18 0 556.2784416536792 590.786202519457 704.633320201945 0 1 0
16166 167 13 0 554.038686629093 592.3811120718716 701.7365925548037 0 1 0
16167 167 1 0 550.7435433686735 593.6412530961387 699.969990401544 0 1 0
16171 167 9 0 549.6745689697449 604.3483852141815 702.2565765388847 0 1 0
16172 167 2 0 551.2251326244011 607.2442999100281 699.6131446072561 0 1 0
16168 167 2 0 549.464204413828 596.5128485710039 701.922065423795 0 1 0
16153 167 17 0 578.8539323637845 599.314858127636 701.3488294894111 0 1 0
16155 167 12 0 576.7017245259557 592.8076073678752 703.1265488555351 0 1 0
16154 167 12 0 577.2516166517916 595.951271195152 700.8562374955773 0 1 0
16152 167 13 0 577.9283147796785 602.6452802563789 702.7369519803141 0 1 0
16151 167 6 0 575.0192667782891 605.3537159675583 702.91348198295 0 1 0
16146 167 2 0 574.2167256404682 594.1197192345707 694.110520421202 0 1 0
13324 138 18 0 584.8109118820172 606.4064370552288 699.6663715594016 -1 0 0
16145 167 9 0 577.8725683231781 593.00936624381 694.7406274764968 0 1 0
13287 137 8 -0.75 581.5598004067238 608.2994542409306 689.9582423427115 -2 -2 0
16143 167 18 0 579.0080899688663 591.4273430465842 688.3601894497712 0 1 0
16142 167 10 0 575.6787750613332 593.2304951805656 688.4592361313861 0 1 0
16147 167 1 0 571.2836452373 596.2181143494093 695.4742819139722 0 1 0
16148 167 9 0 572.8985091359443 599.1702268958194 697.3277830443459 0 1 0
16149 167 2 0 573.1563574612467 603.2242302328755 697.8232192248687 0 1 0
16150 167 12 0 573.4783672333984 606.7095784994567 699.69317738127 0 1 0
16144 167 6 0 579.970694256656 591.2656117483384 692.0936624617366 0 1 0
13289 137 12 0 587.3218106226726 607.6667788221478 686.8686282291881 -2 -2 0
13327 138 13 0 587.42472461964 602.4131604758081 694.6150727313333 -1 0 0
13329 138 10 0 592.3847664424563 605.7849188382118 691.8710357519075 -1 0 0
13328 138 12 0 590.0259954194875 604.9426725458868 694.9772215232625 -1 0 0
13288 137 4 0 583.3711134006345 606.9733841971274 686.9446249867743 -2 -2 0
13323 138 1 0 587.6264190446618 606.0680019373738 702.353596065563 -1 0 0
13326 138 2 0 583.9047828693426 602.9768011532062 695.865230689444 -1 0 0
13325 138 17 0 582.1921505069441 606.1728223970038 697.1093653769868 -1 0 0
13362 138 18 0 607.4271197035557 596.5761115998807 689.5803779090695 -1 0 0
13361 138 12 0 606.0341568954058 598.7511398779496 687.0907399143802 -1 0 0
13363 138 18 0 609.9145735049636 595.2858226361247 692.378315028531 -1 0 0
13352 138 18 0 610.448951930528 590.3655662291268 699.0065731723729 -1 0 0
13347 138 4 0 614.0628295769018 607.0879329908314 699.3216080165498 -1 0 0
13330 138 18 0 595.7689832581839 605.8715501151557 690.2612003164011 -1 0 0
13364 138 12 0 610.3329666034867 591.3238482094114 692.1294142537303 -1 0 0
13333 138 2 0 600.1154567633106 603.0509630147498 695.7636569274332 -1 0 0
13332 138 9 0 599.562234125136 606.9381412771168 695.7921567429969 -1 0 0
13331 138 6 0 598.9335334816659 605.7870723006116 692.2302152888702 -1 0 0
13357 138 17 0 601.9407934170813 595.5514303516115 692.215209621361 -1 0 0
13356 138 18 0 603.86665648239 597.1622953964692 694.7356733896137 -1 0 0
13355 138 2 0 606.7397732455523 597.3389654496818 696.7794125141601 -1 0 0
13354 138 1 0 606.4766836770242 594.8855867001658 699.5651350497249 -1 0 0
13358 138 9 0 600.4803490149316 592.503278007502 689.8565747820173 -1 0 0
13334 138 1 0 598.0909174782641 600.2181158794978 697.4670793696832 -1 0 0
13359 138 2 0 602.2948730861939 593.6017155169977 686.8076984097804 -1 0 0
13353 138 13 0 606.8555733134324 591.2782999059825 697.716737199924 -1 0 0
13345 138 17 0 607.4058933541796 606.0551255813327 696.640308070105 -1 0 0
13343 138 2 0 608.7655397564748 603.3521929197357 700.7897973953814 -1 0 0
13344 138 14 0 605.5451144625555 603.3979011712165 698.7366576857239 -1 0 0
13342 138 12 0 609.3457524404497 603.0459325884838 704.3089621534638 -1 0 0
13335 138 9 0 595.7733847680903 601.7857390061605 700.2500532106986 -1 0 0
13336 138 2 0 596.0826968353417 603.539740800967 703.577564035519 -1 0 0
13346 138 12 0 610.7025693645563 608.0154439438844 697.8448160028345 -1 0 0
13350 138 15 0 612.6345183608856 597.1820341038303 700.2589591185904 -1 0 0
13351 138 6 0 613.0804782817559 593.2598929015272 698.999142622918 -1 0 0
13349 138 15 0 613.1325284752043 600.3107754105978 698.4296523649846 -1 0 0
16173 167 10 0 553.2253217513393 610.3138501718058 701.175483662722 0 1 0
16186 167 17 0 549.2887765465838 611.7292481714248 693.5393056606159 0 1 0
16174 167 12 0 551.6189661909098 613.7108831511722 701.8927167153186 0 1 0
13285 137 2 0 585.7167852098091 613.8383793516533 691.982512460316 -2 -2 0
13286 137 9 0 583.5769417883744 611.0180214206823 692.030128917634 -2 -2 0
13283 137 10 0 591.0984367928329 613.7229038060037 690.4724654572177 -2 -2 0
13284 137 6 0 587.8321109932502 613.8763494985836 688.8158991621265 -2 -2 0
13280 137 2 0 586.8592622754959 615.8133036033853 699.0833059633368 -2 -2 0
13282 137 5 0.75 591.9241422626459 612.6076505314988 694.306276556105 -2 -2 0
13281 137 9 0 589.6885148647318 613.8117395228464 697.5372966742814 -2 -2 0
13277 137 12 0 580.0950265959985 618.0916336347681 704.224702802702 -2 -2 0
13278 137 18 0 583.213656785269 617.1830392353846 702.3649037032445 -2 -2 0
13279 137 15 0 586.0237289191093 614.4540601856164 702.4769154113516 -2 -2 0
13275 137 18 0 580.399081293479 623.5615307674634 704.4295887372639 -2 -2 0
13273 137 1 0 586.3798713258042 624.4582947182764 701.7474364716425 -2 -2 0
13271 137 2 0 591.7247689881966 623.5488616123204 702.0306065480098 -2 -2 0
13272 137 15 0 588.7234735992608 621.7467117997317 703.51681903378 -2 -2 0
13274 137 11 0 583.7406879443763 625.3217697559048 704.4126967177544 -2 -2 0
13270 137 17 0 595.2062956167642 621.7243198219173 702.3716100331661 -2 -2 0
13628 141 12 0 605.041626100096 648.4547399786202 702.4399517628967 1 3 0
13467 139 1 0 566.2273416887506 565.1984352935985 705.9639052037872 0 -2 0
13461 139 12 0 558.3055342268254 567.8470397545334 715.0845951313983 0 -2 0
17072 176 12 0 553.4084237902586 556.1109339889758 713.627778542293 2 3 0
13462 139 2 0 555.0083228248285 565.594710987481 713.7335124759987 0 -2 0
13465 139 2 0 560.9948530529688 562.4756128514884 710.085229441907 0 -2 0
13466 139 15 0 564.039517160828 564.1112365927895 708.3342494798411 0 -2 0
16994 176 12 0 569.7799109064345 560.1436356998706 723.5570791020331 2 3 0
17071 176 4 0 556.8606211970426 554.8565878117565 715.4240232611062 2 3 0
17070 176 8 -0.75 557.2801580814839 555.8155517821799 719.3462481639674 2 3 0
17069 176 9 0 555.7464569762693 555.6853055996423 722.7332175225621 2 3 0
16995 176 13 0 570.207346234298 558.3151741822816 720.0670438101215 2 3 0
17068 176 2 0 554.2608906450735 552.1491448170661 724.0560895997149 2 3 0
16983 176 12 0 569.4765090915447 550.8109535353818 719.3280888488124 2 3 0
13475 139 9 0 559.9297858284731 553.9010408927162 705.9359463297772 0 -2 0
13476 139 5 0.75 559.1168750409402 554.4449862566904 709.6644728332562 0 -2 0
17067 176 6 0 555.8585440371598 549.8203674410553 721.523472800274 2 3 0
16997 176 12 0 569.3593606593128 555.9167980141322 713.5175538171675 2 3 0
16999 176 9 0 568.4791940586131 557.6226920622623 706.4309178669935 2 3 0
16998 176 13 0 569.0701931860409 556.5974382503127 710.1885594056419 2 3 0
13464 139 17 0 557.7356721165639 560.7169819249094 708.6599119730805 0 -2 0
13463 139 12 0 555.9662455826597 562.219086597163 711.6163308369001 0 -2 0
13454 139 17 0 565.9810458215226 567.9115898485571 712.792660407618 0 -2 0
13452 139 2 0 564.0681105888451 568.7000594102478 719.7879264506597 0 -2 0
13453 139 18 0 565.5131496591875 567.1333128029543 716.4523405488926 0 -2 0
13451 139 1 0 567.1155162256116 566.9259189714066 721.3687902435819 0 -2 0
16076 166 10 0 551.260192279495 551.0944475028217 717.7299326219418 1 0 0
13477 139 10 0 561.5481808492895 554.20661579487 712.173443534215 0 -2 0
13479 139 2 0 566.9653742601089 549.3218471469366 712.0168271089141 0 -2 0
13478 139 6 0 564.1014792581842 551.7842377872136 712.9820564673344 0 -2 0
13481 139 8 -0.75 566.0780794331005 551.6778260299459 706.0689428761132 0 -2 0
17066 176 10 0 559.5552848023502 550.0833236745265 722.3277006706655 2 3 0
17065 176 5 0.75 562.5710971591809 551.18076640888 724.3030889772788 2 3 0
16095 166 5 0.75 550.2531419888136 549.1397670817433 711.8610029983014 1 0 0
16094 166 9 0 553.7082307936032 550.0181067317484 709.6526563556797 1 0 0
16093 166 2 0 553.3340967470257 552.9063499492759 707.4529436340264 1 0 0
16996 176 2 0 570.7672479189858 557.9499618276066 716.2765906110509 2 3 0
16982 176 12 0 572.8666168307111 550.8595307551587 718.1314486606465 2 3 0
16979 176 18 0 576.3589862868223 552.703964400431 709.6028945683144 2 3 0
16430 170 2 0 586.8486453020545 558.4705342491706 708.8187414963095 0 1 0
16429 170 17 0 584.7868635668499 555.280510610442 708.9548673553356 0 1 0
16428 170 18 0 583.7761530108716 554.2912733722858 712.5050935865366 0 1 0
16427 170 1 0 584.8229999686254 550.3933465114917 712.9777059510182 0 1 0
16980 176 10 0 576.1369096586046 550.526665345074 712.4972030962466 2 3 0
16978 176 17 0 577.3990535457681 553.9330904686516 705.7619840683776 2 3 0
16432 170 12 0 582.1501125683687 562.2537708319178 710.0969894179985 0 1 0
16433 170 10 0 580.5950491646 565.4382110703806 708.5634904213229 0 1 0
16431 170 13 0 585.7672019070587 561.5782613157729 710.4721333617321 0 1 0
13445 139 12 0 578.2976043594298 558.842607061898 715.5337740554547 0 -2 0
13443 139 12 0 583.7269708960168 562.1895980134897 717.3848444122738 0 -2 0
13444 139 4 0 579.6636714891816 561.9219073403646 716.7894871233059 0 -2 0
13446 139 15 0 575.583483507833 559.3859796257547 713.3111969084852 0 -2 0
13442 139 17 0 587.1052381611427 562.4720603128934 717.6443457736839 0 -2 0
13441 139 14 0 590.3274502810909 564.1374367492695 717.0900500213357 0 -2 0
13440 139 2 0 591.8357725493945 564.7069405806138 720.6529142553813 0 -2 0
16409 170 18 0 584.5794789012795 549.0416992642596 723.8238648761742 0 1 0
13439 139 12 0 591.514424080081 565.0670507303212 724.4373941160628 0 -2 0
16981 176 12 0 575.9144277379935 552.1946715466213 716.0189632210095 2 3 0
16410 170 9 0 582.41082536192 549.1089569621531 720.642035869353 0 1 0
16402 170 17 0 591.9073938339262 553.3242833089757 719.1380139821391 0 1 0
13450 139 13 0 571.1340082586678 567.1268486294504 720.456121036489 0 -2 0
16434 170 18 0 582.5385086406518 568.380456748271 708.5480095748735 0 1 0
17024 176 6 0 584.1607179175846 567.937535748572 718.6521641794304 2 3 0
13447 139 15 0 574.2779001493715 562.6271774744737 714.748536187402 0 -2 0
17025 176 13 0 580.9553357758613 566.6192837238484 720.3792516115088 2 3 0
16403 170 12 0 590.1012630314164 556.1690196019026 720.8071703049258 0 1 0
16440 170 2 0 586.659527089033 567.9984971319878 705.2427318589706 0 1 0
16439 170 9 0 590.4668038853035 567.8793135133071 706.357339453459 0 1 0
13449 139 18 0 573.9435436776828 566.5807182727947 718.3119098386229 0 -2 0
13448 139 6 0 576.105688035953 566.0931870067327 715.5969961797869 0 -2 0
16989 176 18 0 575.2725740972742 554.240728402705 724.4575462156364 2 3 0
17026 176 17 0 581.8691655252754 568.9631187156409 723.5593316414463 2 3 0
16404 170 20 0 589.1718234874292 559.1409815269262 722.6079785896545 0 1 0
16484 170 10 0 602.2039007617839 561.3157910844618 705.67765195777 0 1 0
16485 170 6 0 603.0930811165068 559.7087602218787 708.9833234806597 0 1 0
16488 170 8 -0.75 608.2033764796863 567.7122652421355 711.2102895528609 0 1 0
16401 170 12 0 592.9071142598461 549.8116185851327 717.9797023639248 0 1 0
13636 141 17 0 595.9062300447562 560.1611538111972 713.9613803158886 1 4 0
13637 141 12 0 599.5305238489763 560.2688783035842 714.9908572271033 1 4 0
13195 137 17 0 597.2947049890206 568.1546952280123 721.2224025928751 -2 -2 0
13633 141 12 0 595.9423611069132 552.6129692141833 712.5221830649473 1 4 0
13194 137 20 0 599.3023232212009 565.091649209817 721.3942988565202 -2 -2 0
13193 137 1 0 598.8922895687731 562.3503889589236 724.1343272277815 -2 -2 0
13638 141 4 0 602.2864238292929 561.6930873507827 716.9428082716472 1 4 0
13635 141 14 0 592.9187663641461 558.8877765762527 712.6789774677538 1 4 0
13639 141 12 0 605.431896125761 562.6034542041735 716.6523750670667 1 4 0
13640 141 15 0 607.994780700038 563.1192402596674 718.9911179986307 1 4 0
13634 141 2 0 592.8012125485297 554.9498541943377 712.8694941075914 1 4 0
13632 141 12 0 597.5923714164664 554.4593498116269 710.0524932207302 1 4 0
13631 141 17 0 600.8385310864129 553.0324262633577 709.0925830510186 1 4 0
13630 141 13 0 603.3440532023161 552.6029502877844 706.0591021770439 1 4 0
13095 135 12 0 614.175269221917 551.4306643401708 717.9040942166566 0 1 0
13641 141 15 0 606.3323621648052 564.2403423735423 722.4902279244736 1 4 0
13617 141 2 0 599.0495657153463 552.317613590198 718.3014177401207 1 4 0
13616 141 17 0 596.9209094959562 552.6532199401435 721.4552766388738 1 4 0
16486 170 2 0 605.8538227452119 562.5800294503857 709.9453668257125 0 1 0
16487 170 9 0 604.8548566934893 566.1247619744111 709.62078099539 0 1 0
13642 141 6 0 605.9485655511168 568.0350583789491 722.5909376126708 1 4 0
13618 141 13 0 601.9125110756893 549.4523346081954 718.2211452918025 1 4 0
13619 141 12 0 601.7518560298863 550.150474564839 714.5252021004695 1 4 0
13615 141 18 0 594.4822063534303 553.0805612453803 724.4701263607124 1 4 0
13460 139 18 0 557.3177783658026 571.6451342401427 715.9016049645686 0 -2 0
13459 139 18 0 557.3036714548091 574.1980486541913 712.647344031333 0 -2 0
16163 167 15 0 562.7462191258873 587.5270907342592 706.1108564076127 0 1 0
16162 167 15 0 566.2810966352855 589.2103591251281 705.9098419850566 0 1 0
16043 166 13 0 549.7273679165712 572.424960464473 724.0402999627713 1 0 0
13458 139 12 0 557.6409072714282 574.3364269777175 708.9280688054038 0 -2 0
16164 167 6 0 558.9793180722161 588.5522751439152 705.9806126794789 0 1 0
13457 139 10 0 558.557595084578 570.6765099889552 708.567612934915 0 -2 0
13455 139 9 0 565.0511155725027 569.9538486891666 709.9825955086669 0 -2 0
12611 131 1 0 551.1431641273558 578.3961864731061 707.1592738480161 0 -1 0
12612 131 20 0 549.2605694136777 580.2089802044009 710.320241044689 0 -1 0
13456 139 2 0 562.2123804262334 571.171510486401 707.9182642588102 0 -2 0
16028 166 13 0 555.10179999582 589.4771342994056 717.4788436889943 1 0 0
17011 176 17 0 569.9283065782481 570.995339129382 705.299150695925 2 3 0
17012 176 2 0 570.6313570477936 570.2091506095107 709.0781737588869 2 3 0
12900 133 4 0 560.7312821258845 588.9100801915307 724.5285656888798 -2 4 0
16040 166 18 0 549.4797596072794 580.3490771626714 721.9753755253133 1 0 0
17009 176 1 0 573.6388344889563 575.4130053357654 705.8662764433989 2 3 0
16452 170 12 0 588.0996941013253 589.0107763068065 708.8555693737919 0 1 0
16160 167 4 0 571.0384454700647 589.0482705232841 708.218298486773 0 1 0
16159 167 12 0 574.5430620588074 587.2209417551851 707.1736296693635 0 1 0
16158 167 17 0 578.4878917178921 587.828643353808 706.7829036497956 0 1 0
16437 170 2 0 588.8785213295464 573.7024521674098 707.9250437632339 0 1 0
16438 170 1 0 590.6945468753976 570.5305869304843 708.9118341717073 0 1 0
16435 170 6 0 582.6332058689711 571.9191528560692 707.4298858762453 0 1 0
17013 176 13 0 573.0279617798641 571.0296388563281 711.9306588895851 2 3 0
17023 176 12 0 586.5478118611601 569.9053215844069 716.2794769076321 2 3 0
17022 176 2 0 583.9714816629066 570.5159224326368 713.2798818794433 2 3 0
17020 176 1 0 579.9006653870946 576.6741564674965 715.7984040798424 2 3 0
17018 176 9 0 577.1498107973453 582.1268294791804 712.9466130208671 2 3 0
17019 176 2 0 579.9488786260179 580.2735793832251 714.5701389021084 2 3 0
17021 176 9 0 581.3482099303286 573.3271001497023 714.1790344285205 2 3 0
17014 176 12 0 572.5170387649333 571.9252397709178 715.6498237054806 2 3 0
17016 176 18 0 573.6861117617271 577.8978617052885 716.4221654041115 2 3 0
17015 176 10 0 574.2390661361779 574.511048330044 718.036283392549 2 3 0
17017 176 6 0 574.6948845413392 579.0374990353478 713.1939511302921 2 3 0
13241 137 6 0 582.7404322316137 585.5373573851996 718.7732407278743 -2 -2 0
16436 170 9 0 585.3135790166534 574.5607998469796 708.1799703490044 0 1 0
13651 141 10 0 591.703449386002 579.2648838944598 723.211200944121 1 4 0
13649 141 9 0 592.2912518761893 577.1616864539386 717.2612163807851 1 4 0
13239 137 2 0 588.0897915166317 584.5838690949429 714.5687203053542 -2 -2 0
13242 137 13 0 584.2162140617075 587.7304581717442 721.8337708402679 -2 -2 0
13238 137 9 0 590.8938393669064 587.0251440035797 715.6212120185535 -2 -2 0
13240 137 12 0 584.5085777958465 583.9596821662412 715.7823100301505 -2 -2 0
17031 176 17 0 581.881389520162 580.8025654417958 723.9484037357813 2 3 0
13652 141 12 0 589.716018242019 582.4266176161199 721.8559209859282 1 4 0
13653 141 18 0 589.8963774318693 585.7649478441552 723.3023196039827 1 4 0
17029 176 2 0 585.8798111708946 577.8290369328969 722.9044224415317 2 3 0
17030 176 14 0 583.3620520295462 579.4128187266049 720.4727198664074 2 3 0
17028 176 12 0 585.5885311295933 574.0521488887937 723.6647736206643 2 3 0
17027 176 12 0 581.9274719804281 572.8832039580954 723.9657107974593 2 3 0
13648 141 17 0 594.5467622927908 578.6319967326373 714.6038856015683 1 4 0
13650 141 2 0 593.17804940924 576.8191548603148 720.5842709262516 1 4 0
16489 170 4 0 607.8114220015043 571.6079311291334 711.6597043832433 0 1 0
16490 170 12 0 607.1475158199769 575.0651673502775 710.2517428399769 0 1 0
16469 170 2 0 598.1398933076274 580.404759852931 705.978439208381 0 1 0
16468 170 12 0 600.3758495489387 581.7354176083895 709.0835552958116 0 1 0
16467 170 18 0 597.0131294503785 582.8612689493968 710.452565360268 0 1 0
16466 170 18 0 595.206662898163 585.0656765200318 707.8427175697904 0 1 0
16465 170 12 0 598.0198308966945 587.255882754799 707.0069292966157 0 1 0
13374 138 12 0 605.8661391801417 587.6200729939568 706.7039607973916 -1 0 0
13196 137 18 0 597.4188790101039 571.0874111869658 723.2216761627981 -2 -2 0
13375 138 18 0 604.8610546612988 589.561940541944 709.7094445935144 -1 0 0
13643 141 18 0 603.7020500233717 570.5480774623358 720.7026608338906 1 4 0
13647 141 18 0 597.2281530042346 577.7067693335933 712.429619954525 1 4 0
13645 141 1 0 601.0069349573511 574.2973317185164 716.4620963751931 1 4 0
13644 141 13 0 602.6549337115448 571.0539357314739 717.1594068847293 1 4 0
13646 141 2 0 599.8123129021864 577.6902728067852 715.3077417909301 1 4 0
13231 137 12 0 606.0168468027608 585.8110216380522 720.1899772462075 -2 -2 0
13228 137 17 0 606.0083171512232 578.6921527256267 718.4694172305225 -2 -2 0
13227 137 18 0 608.554729516515 577.2591864834459 721.3293104220002 -2 -2 0
13237 137 1 0 594.2580342817714 587.5475253264516 716.8041645371436 -2 -2 0
13226 137 1 0 608.6525439044177 579.5858355463664 724.707462254764 -2 -2 0
13232 137 10 0 603.9090884956706 588.508449408271 722.1042472968966 -2 -2 0
13235 137 9 0 596.7728202548333 582.3240914584957 720.8967416541806 -2 -2 0
13234 137 6 0 599.7266265658145 584.3040234054968 722.0103631889135 -2 -2 0
13236 137 2 0 596.7576433695162 584.661379622381 718.0040352861206 -2 -2 0
13233 137 18 0 601.1496082931277 587.2005807267981 724.5595070648361 -2 -2 0
13230 137 13 0 604.396418165259 584.8257147581724 716.6888896095322 -2 -2 0
13229 137 2 0 606.6495535242581 581.7916659888747 716.2985340183164 -2 -2 0
14958 155 13 0 613.1584975586021 587.2652260174987 720.1245576710562 -1 1 0
14956 155 2 0 612.019782330694 589.4993967639405 714.5470596492722 -1 1 0
14957 155 12 0 611.4998980167946 586.2997114847701 716.4282316298387 -1 1 0
14959 155 2 0 613.1490289263936 583.4106118659902 721.2167849879426 -1 1 0
16030 166 2 0 553.6475620700066 593.4562508749407 722.2613019685894 1 0 0
16029 166 9 0 555.9493918558879 590.5932347149788 721.1539131703083 1 0 0
16161 167 12 0 569.5556528690581 591.2366073958649 705.6149644547438 0 1 0
16026 166 2 0 556.6825157447012 592.854734213631 711.7941003416494 1 0 0
16025 166 13 0 554.6715866903886 595.6933711592256 709.7888803619379 1 0 0
16027 166 12 0 554.9076921421463 590.0507211566513 713.7874865644109 1 0 0
12624 131 18 0 551.4038627247924 608.149888594058 709.8212840731596 0 -1 0
12623 131 9 0 552.0463667212406 604.5845096560524 710.3300882299527 0 -1 0
12896 133 6 0 554.8417817807161 600.696752110374 723.4320809620971 -2 4 0
16024 166 12 0 554.7600130390047 598.4040152677106 707.1169614336366 1 0 0
16023 166 2 0 550.7515425240596 599.3639584157511 707.2460633309829 1 0 0
12894 133 5 0.75 551.0207361289782 605.7062536520347 724.2254730887879 -2 4 0
12649 131 12 0 559.225919557006 606.7849779723701 722.8821572141558 0 -1 0
12648 131 13 0 558.3929918005099 609.0308714149553 719.5568226274058 0 -1 0
12620 131 12 0 551.1726686724653 598.556668032022 717.0885766375887 0 -1 0
16031 166 17 0 550.6997179269639 595.7381952758865 722.6161955726018 1 0 0