LAMMPS data file via write_data, version 8 Apr 2021, timestep = 11390002

6208 atoms
40 atom types
6144 bonds
1 bond types

548.8454457994151 651.1545542005849 xlo xhi
548.8454457994151 651.1545542005849 ylo yhi
548.8454457994151 1265.009204607604 zlo zhi

Masses

1 131.199997
2 57.0499992
3 128.199997
4 101.099998
5 156.199997
6 71.08000180000001
7 115.099998
8 129.100006
9 163.199997
10 99.0699997
11 113.199997
12 128.100006
13 186.199997
14 147.199997
15 87.08000180000001
16 137.100006
17 114.099998
18 97.1200027
19 103.099998
20 113.199997
21 131.199997
22 57.0499992
23 128.199997
24 101.099998
25 156.199997
26 71.08000180000001
27 115.099998
28 129.100006
29 163.199997
30 99.0699997
31 113.199997
32 128.100006
33 186.199997
34 147.199997
35 87.08000180000001
36 137.100006
37 114.099998
38 97.1200027
39 103.099998
40 113.199997

Bond Coeffs # harmonic

1 9.6 3.81

Atoms # full

17034 176 12 0 553.9111691987173 556.9366790340462 662.5270825141592 -1 7 0
17031 176 17 0 552.5831978867499 565.2990810960127 661.6687697172187 -1 7 0
17032 176 12 0 552.0693194542101 562.9909372631951 664.844498619578 -1 7 0
17033 176 4 0 554.1097898551909 559.8526043115237 664.9399561415872 -1 7 0
17035 176 15 0 551.923322553771 554.9498197723822 665.0359807316499 -1 7 0
17036 176 15 0 549.5297304755383 557.0903806207771 667.4155074187009 -1 7 0
17030 176 14 0 554.4357883633465 568.3503511514136 660.8060578398043 -1 7 0
17028 176 12 0 550.0172124833407 572.6462725517925 663.7490859744407 -1 7 0
17029 176 2 0 551.4161138333754 570.7082893151164 660.7387390525818 -1 7 0
17018 176 9 0 550.0087026181843 571.8467421399129 671.1102833970676 -1 7 0
12692 131 11 0 584.3086460042297 572.5952454140793 670.2223487681991 0 2 0
12702 131 6 0 601.2712507774858 566.3169116190882 655.7927803120235 0 2 0
12703 131 2 0 599.1276380210868 563.1747050922564 654.4819987864878 0 2 0
12701 131 10 0 601.2146127817373 569.7458205174938 657.025899427886 0 2 0
12706 131 4 0 592.7513670119906 555.2642338040386 653.3180392989947 0 2 0
12704 131 9 0 597.3486659253881 559.9647805450876 655.6317776093928 0 2 0
12705 131 8 -0.75 594.604558885942 558.597426099854 654.1659921137626 0 2 0
12696 131 18 0 594.1474661834852 571.0227689894532 670.8420962781042 0 2 0
12707 131 12 0 589.8672252677609 553.9003568242626 650.8383046145393 0 2 0
12697 131 15 0 593.7430382206036 570.2902311532763 667.2520410604633 0 2 0
12700 131 5 0.75 599.7154526158274 570.5181785020475 660.4903502373111 0 2 0
12699 131 9 0 598.7545389852689 571.7659176490102 664.0953350309346 0 2 0
12698 131 2 0 597.6601256958095 570.5147063946612 667.6337783648956 0 2 0
14553 151 17 0 604.9988759663922 568.6073018021423 663.7967669267864 0 2 0
14554 151 18 0 607.1867091941518 571.2804300946301 663.3437821370976 0 2 0
14552 151 20 0 603.7624149592239 568.0704112828756 667.1739626407332 0 2 0
14551 151 1 0 602.1188798802176 569.7265998052698 670.6328489808276 0 2 0
17039 176 13 0 650.1998028870794 563.8232160310204 669.6841834940408 -2 7 0
17040 176 1 0 646.7154347083501 563.9708774947891 667.5119140006627 -2 7 0
17042 176 18 0 640.5147983831704 559.8162789412413 668.4874324068566 -2 7 0
17043 176 17 0 637.8479187846316 559.5317487757513 671.0618250117006 -2 7 0
17022 176 2 0 640.8274341970025 571.4300003847292 663.0995998830234 -2 7 0
17019 176 2 0 648.3780367911189 571.5014976818319 669.756032463313 -2 7 0
17021 176 9 0 644.5458507592435 571.1268807346644 663.8907028992613 -2 7 0
17041 176 2 0 643.0317540380311 562.4561147925062 667.8898644065864 -2 7 0
17020 176 1 0 644.9234783812067 571.1890767440647 667.8198848272816 -2 7 0
17027 176 12 0 549.4357909309773 576.2768666269646 663.1427216922232 -1 7 0
17017 176 6 0 551.254374841097 575.4581384577391 670.6464983676591 -1 7 0
12613 131 17 0 577.9870563215842 594.5999070949371 668.1789920827715 0 1 0
13165 136 2 0 601.4827346545075 583.4444475219918 655.7037814371562 2 2 0
13164 136 9 0 600.7498683713636 579.6096165179468 655.484820157796 2 2 0
14555 151 10 0 606.9612023139135 573.8569636694594 665.951253558905 0 2 0
13166 136 10 0 604.2575642919628 586.1590281306883 656.4671421187197 2 2 0
13161 136 2 0 601.355893730378 577.2731638846736 666.0126673131163 2 2 0
13160 136 1 0 603.6889032566946 577.9504386604219 668.6013237433314 2 2 0
13162 136 18 0 599.7998210285385 578.6761177404901 662.5752910264993 2 2 0
13163 136 17 0 601.2142179107793 578.0628790692756 659.1429314177254 2 2 0
13168 136 18 0 608.1606159052686 588.744346421231 658.9023907131631 2 2 0
13167 136 12 0 607.1009397190976 587.4212554295594 655.1007558469231 2 2 0
13159 136 13 0 605.7385549747106 581.3024400910423 668.1506528414227 2 2 0
13158 136 18 0 609.0595522272836 582.5579756165705 669.674014539846 2 2 0
14556 151 12 0 610.3061136411338 574.6359482387977 667.6613049521583 0 2 0
14557 151 12 0 611.1966672985706 576.1272401870846 670.8041937100916 0 2 0
13169 136 18 0 610.8674475180482 591.2915238271553 659.8763122765557 2 2 0
13173 136 17 0 613.9137769824001 595.0785589911075 664.1287746831971 2 2 0
13172 136 12 0 616.1149280269542 594.3004125589405 661.5316190164592 2 2 0
13171 136 2 0 613.5227421702192 596.0029918802682 658.9155957183636 2 2 0
13170 136 12 0 612.4484150763225 592.8556624205966 656.836447248184 2 2 0
13174 136 2 0 610.5569857803866 595.1800361652746 666.8181797716858 2 2 0
17026 176 17 0 647.9742218835288 576.9589181992179 664.2631790505322 -2 7 0
17025 176 13 0 645.7773485968982 578.3173111410606 667.1380380666839 -2 7 0
17024 176 6 0 642.6893826791477 576.9261267464597 665.3214576057334 -2 7 0
17023 176 12 0 639.5740381633677 575.2896792831931 663.4217449900618 -2 7 0
17037 176 6 0 550.2958381011904 557.0919243870117 671.2742879490962 -1 7 0
18026 186 1 0 556.032657428707 551.0880558771661 688.0895439615921 -1 1 0
18025 186 15 0 558.8266391410875 551.8981679375925 685.559253642479 -1 1 0
17067 176 6 0 562.625095425571 570.5468752634581 686.4399414049301 -1 7 0
17065 176 5 0.75 556.8195309106802 567.6183584577568 687.4632480234873 -1 7 0
17066 176 10 0 560.5085925999423 568.0915664291708 688.5812005659589 -1 7 0
17064 176 9 0 555.592194119565 568.7246996112434 684.0843961676017 -1 7 0
17063 176 2 0 556.0613248050963 571.6497608574753 681.5751341503833 -1 7 0
17062 176 15 0 558.2835690336843 571.3050058698082 678.8142729228193 -1 7 0
18027 186 11 0 554.7670674600467 553.5434138132298 690.5043046852487 -1 1 0
17060 176 12 0 554.1307169522083 566.8820596663539 676.2194300142957 -1 7 0
17061 176 18 0 555.9611107033845 570.1827783676919 676.3590042236196 -1 7 0
17059 176 17 0 550.1961426082811 566.145314711724 676.1368878340468 -1 7 0
17058 176 18 0 549.6910445499104 564.202385013896 679.5086762833761 -1 7 0
17990 186 1 0 557.2152879441304 559.7809855835216 689.8417985270013 -1 1 0
17991 186 9 0 554.0329401342813 561.4197877393844 689.3601329551158 -1 1 0
17992 186 2 0 550.7509551755377 561.1867262644552 691.3722926929255 -1 1 0
18024 186 2 0 559.17507635131 550.6558765467163 681.963701477382 -1 1 0
12798 132 10 0 561.2573145966518 550.7345735159694 690.3766103777476 0 1 0
12694 131 17 0 589.2790607773105 570.9206699334227 674.7644525414213 0 2 0
12693 131 18 0 588.1978181899672 572.2215644531096 671.083420388896 0 2 0
12690 131 15 0 581.2719429390507 569.0728295030947 673.2792407504659 0 2 0
13127 136 12 0 571.6193002677454 572.1683248666812 681.074962502064 2 2 0
14571 151 2 0 587.1310746410112 560.786475932572 683.5384226286432 0 2 0
13129 136 1 0 577.8172501528812 570.404852193017 682.6123630512077 2 2 0
13128 136 9 0 574.2239343753217 569.3882113437505 682.4763365671856 2 2 0
12683 131 18 0 585.1175997266139 550.2433732828272 675.0841788860345 0 2 0
13130 136 18 0 581.0805534184886 569.4351028869436 680.728451110706 2 2 0
13131 136 17 0 584.72559225771 569.274856151539 681.5488852492606 2 2 0
14573 151 13 0 583.0507353355854 563.8234793816587 686.4207251476523 0 2 0
14572 151 12 0 583.143053315782 560.5529215403927 684.2086847120307 0 2 0
12685 131 12 0 584.6290204118415 556.2047096129887 674.2755607030492 0 2 0
12684 131 18 0 584.1391192377657 553.1756687707518 671.98627570344 0 2 0
12689 131 2 0 584.1468065625289 568.0947015449922 675.578230565886 0 2 0
14574 151 9 0 580.7973869722574 566.3197082006678 687.8243749054498 0 2 0
12688 131 17 0 583.6094581583706 564.6150521618634 677.0117775152835 0 2 0
12686 131 2 0 583.1710611333637 559.651222808344 674.9324337797403 0 2 0
12687 131 12 0 584.9687247103953 562.6369065348897 674.0774234357209 0 2 0
13132 136 2 0 588.6863324515531 567.8152209812363 681.342641544583 2 2 0
16221 168 12 0 587.4202100573339 572.3885440987242 690.1089946254529 4 1 0
14570 151 13 0 588.7964467365355 558.1702750378311 681.3920762901058 0 2 0
14577 151 6 0 572.4887596346362 560.2545688519955 688.5250362822718 0 2 0
14576 151 17 0 575.1677068760279 562.6581060835622 686.8708227711779 0 2 0
14575 151 2 0 577.3548287957484 565.9640661680695 686.3174296555022 0 2 0
16220 168 2 0 587.1568551574969 572.4259623686273 686.1695201027186 4 1 0
14579 151 12 0 577.3326150551611 556.995818474782 690.498951829106 0 2 0
14578 151 12 0 573.9722494007837 558.4847476887991 691.4236589709305 0 2 0
12757 132 13 0 569.6484158687155 549.7920829819122 691.1917088012739 0 1 0
12682 131 12 0 587.6610269784911 549.4790351119453 677.8913219537176 0 2 0
12695 131 12 0 593.1552940498331 570.6927395836144 674.5250564384571 0 2 0
13133 136 13 0 591.8615301307374 565.8708242886805 680.2651899297538 2 2 0
14562 151 2 0 604.8927951160775 565.6206054861049 679.1135731178969 0 2 0
14563 151 9 0 601.8476327469654 566.3495142619398 680.8435607951823 0 2 0
13143 136 12 0 602.3112840602917 572.4144254780363 690.0235994495506 2 2 0
13134 136 12 0 592.3562601388658 564.5817017315555 683.7151202207359 2 2 0
13135 136 10 0 592.2511417106147 563.9926619122949 687.5895197731408 2 2 0
14568 151 2 0 592.14941557923 556.0035698567273 677.1055368154041 0 2 0
14567 151 9 0 595.3828014309445 556.0994911863926 675.113449387749 0 2 0
14564 151 18 0 599.4342255636151 563.9728943825393 679.4891974484643 0 2 0
14569 151 12 0 590.0801943914903 554.741027327157 680.100195201563 0 2 0
13136 136 18 0 591.2217142094007 566.4738106920177 690.0884065052479 2 2 0
14566 151 18 0 598.1456450750429 557.6467758054479 677.5733136844426 0 2 0
14565 151 12 0 598.0309156914175 560.5661614499356 680.2055255662799 0 2 0
14560 151 12 0 608.5089870378247 568.8914708825578 674.5837769237988 0 2 0
14561 151 20 0 605.5384967459343 568.8789857408218 676.8166002750531 0 2 0
13146 136 17 0 596.7422946048454 571.8516038915436 681.8406375350787 2 2 0
13145 136 13 0 599.2766422064459 572.16845779173 684.3761709553619 2 2 0
13142 136 2 0 600.6544913469867 569.320287368773 690.9850048730882 2 2 0
12681 131 10 0 591.5478965394001 548.9460660252367 677.4233842774051 0 2 0
18409 190 2 0 628.1050872284793 549.8168420477441 682.1532818636119 0 1 0
14559 151 17 0 612.2334546318041 569.3800925897177 673.4319082042206 0 2 0
18404 190 10 0 628.6538117414759 561.6109738377737 690.5624511260824 0 1 0
18405 190 12 0 626.5739531224364 558.5969607456408 689.8389896941216 0 1 0
18407 190 18 0 622.9396112761248 554.1044216306808 685.6029470088391 0 1 0
18406 190 18 0 623.850121909497 556.223725982717 688.7403304748742 0 1 0
18408 190 12 0 625.7178250631405 552.2395697385812 684.3214137942324 0 1 0
17038 176 18 0 651.1050934305279 560.486059526989 671.5323411552885 -2 7 0
17044 176 9 0 637.0224271770026 557.9006196081173 674.3955948478418 -2 7 0
17045 176 2 0 640.0079768950764 555.1376416338265 674.8687091979562 -2 7 0
17046 176 10 0 638.3717166978935 552.0468054791495 676.2714470172781 -2 7 0
17048 176 18 0 637.9829385488783 554.1610477514879 681.6969126305507 -2 7 0
17047 176 12 0 636.389681657784 551.3463594058858 679.5690643669752 -2 7 0
17049 176 18 0 637.2389921468965 555.8693674771209 684.7805412387628 -2 7 0
17050 176 12 0 635.1616753280771 559.1173490188365 685.2460110536048 -2 7 0
17051 176 2 0 635.7572609529477 561.1550987067396 681.8074982462236 -2 7 0
17054 176 2 0 644.0181294229332 558.5621131520832 681.2512823617656 -2 7 0
17055 176 15 0 647.9416610558831 558.5370435896301 682.0377250132849 -2 7 0
17052 176 12 0 638.7216599481239 562.8974137693634 680.4876820838116 -2 7 0
17056 176 1 0 648.8531210633026 561.5438039605032 684.9365801000907 -2 7 0
17053 176 17 0 640.4534863335232 559.5882210429784 679.6112366109983 -2 7 0
17057 176 11 0 650.4814127693392 564.723102420926 682.9226930411861 -2 7 0
18387 190 2 0 635.4736628779561 552.4083701972664 688.8805520752727 0 1 0
18388 190 14 0 639.2006718090639 552.2567518545272 690.2766507750733 0 1 0
18390 190 12 0 641.0713125046958 559.2451405258367 689.6680800571137 0 1 0
18389 190 17 0 640.7244866563282 555.5981511688759 689.6594979849154 0 1 0
18394 190 15 0 636.7766511212955 566.9881702352006 689.9576620862703 0 1 0
18393 190 15 0 639.0943868129177 564.6363896069008 691.0505471822938 0 1 0
17069 176 9 0 560.775701783564 577.1960198779229 684.5337483663897 -1 7 0
17070 176 8 -0.75 564.1987440367011 577.4281168119311 686.7723085754245 -1 7 0
17068 176 2 0 561.2002406686195 573.1770363875893 684.0331051996316 -1 7 0
17071 176 4 0 566.9132442668131 574.7709947498751 685.9431149264421 -1 7 0
17072 176 12 0 569.2107766676793 574.9676470261567 688.9753418377107 -1 7 0
17004 176 12 0 552.7433562796012 574.482150679803 684.8638008976044 -1 7 0
17003 176 12 0 554.4174163855242 574.3971790439067 688.5405395589318 -1 7 0
17002 176 6 0 557.4061005938461 574.7725118502635 690.7240121891277 -1 7 0
17001 176 17 0 560.9220482688827 574.0486474801916 690.5682515098082 -1 7 0
17005 176 20 0 550.7390629385588 573.3507835580124 681.9269244639602 -1 7 0
16201 168 20 0 559.6402829247829 586.5812154905904 679.6488327222932 4 1 0
16202 168 17 0 560.6515835062984 584.6530025368701 682.7037733392066 4 1 0
16200 168 1 0 559.2704455861772 586.8571293892787 676.1901684275537 4 1 0
16203 168 18 0 563.5688202906614 582.6889153640761 684.5065079086152 4 1 0
16204 168 10 0 566.6672540330599 584.1998237489269 683.2703127901286 4 1 0
12499 129 18 0 555.3775955377179 591.746491712959 685.2744627933766 1 0 0
16205 168 12 0 568.7184035555231 587.3593054821449 683.1001303434998 4 1 0
17015 176 10 0 552.5222969442381 582.3121093000283 673.2689548452421 -1 7 0
17016 176 18 0 550.766823765747 579.5733965844177 671.2837603640306 -1 7 0
17014 176 12 0 551.2988849475387 582.6051048890436 676.8219024292217 -1 7 0
12500 129 17 0 558.0347202054055 594.3890212105799 686.3733557842718 1 0 0
16990 176 12 0 557.3860349226826 580.7587706675815 691.0730555720158 -1 7 0
12498 129 11 0 554.5512988036018 591.9926384629293 681.7934783813191 1 0 0
12497 129 1 0 554.4914557736693 591.4028460994984 677.9966003499792 1 0 0
12496 129 15 0 551.3787063967333 593.8549425335735 678.6465991698338 1 0 0
12495 129 2 0 548.9063106773121 593.2853993973695 681.9082761397201 1 0 0
12691 131 1 0 582.1020328173455 572.8206043503553 673.4770554516778 0 2 0
13126 136 2 0 570.2611772703875 573.2256112511574 677.4432383987391 2 2 0
13117 136 12 0 580.6514976208576 574.5677375127107 691.4341289726783 2 2 0
16219 168 13 0 587.8910320460571 575.2380299051063 683.4042003124888 4 1 0
16206 168 12 0 570.4991717268827 587.7818191711796 679.7223428511743 4 1 0
16208 168 17 0 576.2207391633136 583.0368322190611 677.847709265808 4 1 0
16207 168 12 0 573.5856838370347 585.8778371485465 678.8042967945387 4 1 0
12632 131 12 0 583.0347400250427 595.5988341419119 677.4382483045923 0 1 0
13125 136 20 0 573.2985029492586 574.8445938009002 675.5006414799261 2 2 0
13124 136 12 0 575.6293577013788 577.2991709332882 673.7469007649742 2 2 0
16216 168 9 0 586.8809903704747 581.2403605709994 689.6956840442792 4 1 0
13122 136 6 0 581.8675975388722 576.9307048751209 677.5441082177985 2 2 0
13121 136 17 0 581.6231141406354 575.8513116100996 681.3242291971355 2 2 0
16209 168 12 0 579.3333216943164 583.8672795296953 679.9019183288733 4 1 0
13123 136 12 0 579.1983572512884 578.0578287996815 675.1075887435293 2 2 0
16210 168 20 0 582.1931780591437 584.2491771119004 682.3279653775056 4 1 0
16211 168 2 0 580.7956898296693 587.6256289203192 683.0879392227985 4 1 0
16212 168 9 0 579.7872265831562 589.6836449210975 686.0901385791612 4 1 0
16213 168 18 0 582.351688531972 586.5675406167034 687.3742777887352 4 1 0
16214 168 12 0 585.7987003705736 587.8038683022296 688.4515956467604 4 1 0
13120 136 2 0 579.2124288402903 577.8885113100324 683.1529771562941 2 2 0
16215 168 18 0 587.8512853002067 584.8324759421612 690.1805546733086 4 1 0
13119 136 9 0 578.7342623493156 579.074243087409 686.5511267849218 2 2 0
13118 136 13 0 577.8801714968564 576.4886040144297 689.501115838237 2 2 0
16217 168 2 0 589.0622284378015 578.6269523978914 688.2789038902415 4 1 0
12631 131 2 0 585.2744205637841 593.4253604679968 675.2732126222825 0 1 0
17964 186 12 0 573.933199809472 586.4078364068074 689.9214777587031 -1 1 0
12634 131 9 0 576.4451448956492 594.9015131194105 679.1708737872433 0 1 0
12611 131 1 0 577.815791851155 589.0066250440061 673.1818011772027 0 1 0
17965 186 13 0 576.9671258135563 584.126309362567 690.2085612144524 -1 1 0
17961 186 18 0 571.8702083833798 596.0508997988327 689.7917237063748 -1 1 0
17963 186 2 0 574.4106986785936 590.019728392025 690.2597643044818 -1 1 0
17962 186 9 0 572.19908341752 592.6339613469565 687.5607693700803 -1 1 0
12612 131 20 0 578.8179252540953 592.0816956010965 671.2187563821724 0 1 0
12626 131 18 0 588.3261118556851 593.6665698337353 682.9142359978796 0 1 0
12633 131 13 0 580.1789072050187 593.7651952630304 679.6295815315937 0 1 0
12630 131 13 0 587.9542214111 590.9194246342013 673.4449621587589 0 1 0
12627 131 9 0 587.8690543299116 590.6064331781688 681.0653873301296 0 1 0
16218 168 12 0 589.8702456001657 578.3341561981057 684.81149023789 4 1 0
13155 136 15 0 604.2737423323075 582.8735138438545 674.2956952041656 2 2 0
13152 136 12 0 595.2308480581917 584.8931576075764 676.9417242225765 2 2 0
13154 136 12 0 601.0433222604386 583.2507070413873 672.819225225129 2 2 0
13153 136 4 0 598.5630413253573 582.8640277863869 675.6237997195864 2 2 0
13151 136 17 0 592.4106939579437 582.7669414096347 675.9359211717727 2 2 0
13150 136 14 0 590.5237741230362 579.4543839901046 675.6474553969837 2 2 0
13149 136 2 0 592.8333205606743 576.8703353745207 674.7121272937743 2 2 0
13148 136 12 0 595.575315886711 576.2004487664423 676.9821880645188 2 2 0
13147 136 12 0 594.4459145252079 574.6587879189782 680.4348594937409 2 2 0
13144 136 6 0 601.2526289557343 573.9843451146196 686.8872110768307 2 2 0
13156 136 15 0 608.1541577606598 581.5405991692162 675.7556514244345 2 2 0
13157 136 6 0 610.2433627646147 583.8036993635444 673.4871491451199 2 2 0
12629 131 12 0 590.2565813337234 588.6146987537211 675.0484791322563 0 1 0
12625 131 12 0 590.8095998501238 596.3834877619079 681.9271141347754 0 1 0
12628 131 2 0 590.5445126146793 588.9703973430027 678.8734954026518 0 1 0
14558 151 12 0 612.9177393149546 573.0740805425852 672.5896646827571 0 2 0
17006 176 2 0 650.7021233166055 576.0790713904258 682.7889970228838 -2 7 0
17008 176 9 0 646.2761467609894 579.6778993287498 686.0912647936766 -2 7 0
17007 176 12 0 647.0955273857489 577.3999186311282 682.712262117346 -2 7 0
17011 176 17 0 643.74107295149 583.2246732702514 680.3296673089978 -2 7 0
17010 176 18 0 642.923272918897 585.0403234538223 683.7736344084049 -2 7 0
17009 176 1 0 644.1021338476877 582.5141313285179 686.5331454969653 -2 7 0
17013 176 13 0 650.6625789124535 583.3472568191786 679.1663417730288 -2 7 0
17012 176 2 0 647.5717641722446 583.7163948910461 680.997222690801 -2 7 0
12494 129 17 0 647.8359838578475 591.4710865305701 682.6401628272582 0 0 0
12491 129 12 0 650.5980839186012 595.0551732254103 686.7923015704937 0 0 0
12493 129 12 0 645.4612597928045 592.264328949482 685.0301262405786 0 0 0
12492 129 2 0 647.4153399198085 593.5279987638061 688.1971271540647 0 0 0
17985 186 10 0 565.5137450978636 564.7807217980646 697.0603364138711 -1 1 0
17984 186 12 0 565.6953704635849 564.0583973433253 700.9745087734075 -1 1 0
17986 186 18 0 564.986557370763 561.5588129594112 694.9787688374312 -1 1 0
17987 186 6 0 562.9973265537072 558.902403357165 696.9471541771921 -1 1 0
17983 186 13 0 562.9771490084794 563.5672411831465 703.4728118526256 -1 1 0
18004 186 12 0 551.0527037961202 552.8376495446533 703.6486807184933 -1 1 0
17988 186 9 0 559.1574143768513 559.54439855616 696.8340241639909 -1 1 0
17981 186 17 0 566.5202197500138 558.4767868699965 707.6900326685125 -1 1 0
12794 132 15 0 565.8974131204083 555.9246119989843 702.3622068510034 0 1 0
12793 132 18 0 563.3311634817911 553.3558839520342 702.8226561623561 0 1 0
12795 132 2 0 566.5766072515972 554.9904290639465 698.8141648308801 0 1 0
12792 132 12 0 560.4852950783584 555.6197885083943 703.5201577878493 0 1 0
12797 132 5 0.75 561.7402184531875 551.4616039391717 694.0501488839258 0 1 0
12796 132 9 0 564.8149512865194 552.9471346238553 696.117746937592 0 1 0
17993 186 12 0 549.0475827470489 564.2208172302902 692.3099126449982 -1 1 0
17994 186 6 0 551.8955138710432 564.151867525725 695.0901413681986 -1 1 0
17995 186 13 0 552.9705094463682 561.3847917629168 697.5047235446453 -1 1 0
17989 186 2 0 558.8276523510191 558.884534017867 693.2158104369275 -1 1 0
17996 186 17 0 550.1716546504139 562.3393277042452 700.030972676929 -1 1 0
12791 132 17 0 559.7420094128655 556.6351577888993 706.722501198849 0 1 0
17980 186 18 0 568.3852224695398 562.1506990030052 707.9042174189983 -1 1 0
16995 176 13 0 562.0822167380195 571.3593134808303 702.3096039128525 -1 7 0
16996 176 2 0 558.743772842803 570.0324399783558 702.0817783704856 -1 7 0
16997 176 12 0 556.4944761032809 566.8913909400846 700.4268269718377 -1 7 0
16998 176 13 0 557.1577026677252 566.8080173880492 696.5188373349497 -1 7 0
17000 176 2 0 560.0005767472131 572.6502263148982 693.9190544892825 -1 7 0
17982 186 2 0 564.9459363236515 560.7321109970289 704.9078488996448 -1 1 0
16999 176 9 0 557.514457924091 570.3808417493196 695.0516482332162 -1 7 0
18006 186 15 0 556.5810100586208 551.4976653987419 705.3220025189516 -1 1 0
12790 132 18 0 560.047838689561 557.3039169234755 710.4822591525282 0 1 0
15747 163 9 0 554.2606392709131 568.6947487233402 710.7214774985109 3 1 0
15748 163 1 0 551.0284194479651 569.6082855166252 708.6208303212525 3 1 0
18029 186 17 0 552.0297815557084 550.1285341572426 696.0610952002303 -1 1 0
18005 186 15 0 553.1113354847555 552.2965338913435 706.5499218592456 -1 1 0
18028 186 18 0 552.0135945198815 552.4407649142969 692.5359699768767 -1 1 0
13116 136 2 0 580.8322585368559 571.3997212783491 693.638330526387 2 2 0
17979 186 1 0 571.740714509662 563.9046032485616 708.5216679550558 -1 1 0
17978 186 9 0 572.1769407480623 567.301619657791 706.6921856915695 -1 1 0
14585 151 18 0 587.4514072032534 556.1135644679215 698.7584005654932 0 2 0
14583 151 9 0 586.53394418137 561.6064806034294 695.9255926422748 0 2 0
14584 151 1 0 589.3209734988775 558.736753117471 696.6135977056689 0 2 0
14581 151 2 0 581.9546437332821 560.1088984888413 691.86467131039 0 2 0
14582 151 12 0 583.155354583617 562.9147105512677 693.9784165914081 0 2 0
14580 151 20 0 580.1539951678958 557.0712635420093 693.2462764666142 0 2 0
14587 151 2 0 583.5557374084221 553.0630692104712 703.9922010584615 0 2 0
14586 151 17 0 586.2713489097703 555.1474889799841 702.3181225376266 0 2 0
14643 151 2 0 578.9157261361884 562.345799874635 702.5696467203102 0 2 0
14644 151 9 0 581.7695538534114 560.3603990084118 701.6985636330188 0 2 0
14645 151 8 -0.75 580.2606222420889 557.9117907184685 699.1962460803959 0 2 0
14642 151 6 0 580.1222092828175 565.7465224779713 702.6614925263063 0 2 0
14646 151 4 0 578.6041967469257 554.9933192138453 701.1635193079718 0 2 0
14647 151 12 0 575.31902814846 553.589659399201 699.5442985607278 0 2 0
17977 186 12 0 570.2454902044385 570.1488156884083 704.8633128294924 -1 1 0
12762 132 14 0 569.4407150001944 549.4502386725509 705.6041241504919 0 1 0
16531 171 18 0 587.7574338441558 549.4444295297569 707.7104034942117 -1 3 0
13115 136 13 0 577.5325719160307 570.9071456458186 696.1642064164898 2 2 0
14641 151 10 0 580.1756417096118 569.3843481653985 703.7983303660312 0 2 0
14640 151 5 0.75 579.4221827887412 572.5991001437451 705.6906902242796 0 2 0
14637 151 15 0 578.9118473272342 570.5001570849581 711.7326855326857 0 2 0
16532 171 6 0 586.1266067188529 549.2093240265824 704.3039382832295 -1 3 0
14588 151 13 0 581.4912111566875 553.0377632208359 707.3345534199433 0 2 0
14589 151 12 0 582.5724543361735 554.1417368012392 710.6435324898316 0 2 0
13141 136 9 0 598.751416415939 568.6335486357369 694.472146892992 2 2 0
13137 136 6 0 592.272519175635 565.8957861613359 693.7354396468586 2 2 0
13139 136 2 0 597.3225080049723 563.009339476733 696.6310013707158 2 2 0
13138 136 9 0 593.5907926373254 564.1658787643933 696.6116474971061 2 2 0
13140 136 1 0 600.472043611715 565.1621780261981 695.1291652625276 2 2 0
13103 136 12 0 596.5174348767221 569.364285411684 708.3166355651653 2 2 0
16565 171 12 0 601.0428838836494 552.4122725366475 710.9707696284647 -1 3 0
16566 171 2 0 604.1973788406219 554.2951145932201 710.5937436181323 -1 3 0
16568 171 17 0 608.7850527988909 558.4244718673366 710.0281427912856 -1 3 0
13101 136 12 0 599.2244948347476 563.1099298669096 711.5085369917749 2 2 0
13102 136 12 0 597.250634432051 566.0547495420008 710.167751744956 2 2 0
16537 171 2 0 591.6548156108983 549.6196205316714 693.253115426862 -1 3 0
18403 190 2 0 628.364748861546 565.1523075854022 692.4127382029143 0 1 0
18402 190 9 0 625.2490638600357 565.6530476634514 694.6456007095669 0 1 0
18401 190 17 0 626.2382307699843 565.0211922779642 698.3318486693834 0 1 0
18400 190 18 0 628.2853509377048 562.0382081231991 699.1437522352123 0 1 0
12853 133 6 0 624.1353383814446 564.5962145273188 706.37635156049 -2 1 0
12856 133 12 0 626.8220249119095 572.1584587719422 705.3507286123596 -2 1 0
16569 171 2 0 611.3999119993163 560.1021369590015 711.7098018590727 -1 3 0
12852 133 12 0 621.8937857751132 562.975202041123 709.1991976126199 -2 1 0
12855 133 17 0 627.4169986958976 568.7227490686055 704.1010649822592 -2 1 0
12854 133 13 0 627.5403101961627 565.0333393655123 705.456554615844 -2 1 0
18398 190 1 0 631.6243281823431 557.5965464890573 699.0594183047 0 1 0
18397 190 13 0 634.9833042836286 558.9250186403362 696.824661660819 0 1 0
18396 190 18 0 634.4387522910073 561.5197776913652 694.0977061460043 0 1 0
18386 190 12 0 632.8177519825759 552.0938346267418 691.5266528556473 0 1 0
18395 190 6 0 634.154497970083 564.9577283679175 692.0238469880732 0 1 0
18002 186 12 0 649.097650270329 557.3283470675649 705.8798558170606 -2 1 0
18003 186 4 0 650.3424220427163 555.0591081241756 702.8146963848926 -2 1 0
18001 186 17 0 645.1626975769111 558.2014895460547 706.0784438302259 -2 1 0
17997 186 12 0 650.5690476837171 565.7031351288571 699.1793481057374 -2 1 0
18399 190 2 0 631.3343976978767 560.7979090979602 700.9860011782014 0 1 0
18391 190 4 0 642.9582829174647 560.7553766766464 692.5618928491474 0 1 0
18392 190 12 0 641.0129831942817 564.0185621347927 694.1243553704419 0 1 0
18000 186 14 0 644.6042492146918 562.4541001620784 704.8839592175963 -2 1 0
15811 163 12 0 642.2620092824617 571.4690222393775 702.5119641593233 2 1 0
15809 163 8 -0.75 638.0304329350183 568.2068072355335 707.1930624656266 2 1 0
15810 163 4 0 639.102211171808 568.9961818697708 703.5424126742839 2 1 0
17998 186 12 0 647.1812472665134 564.7213659260676 698.664203854851 -2 1 0
17999 186 2 0 644.8601684423738 564.8497250984086 702.0649549411348 -2 1 0
15749 163 18 0 650.7241001327839 571.861705842496 708.2516317192748 2 1 0
15741 163 6 0 648.5429109042534 565.7101078301589 710.4541845899635 2 1 0
15805 163 10 0 634.3241044985679 571.8659895447983 710.9043847756998 2 1 0
15807 163 2 0 633.1408283587257 569.9106602365061 704.9439915918939 2 1 0
15808 163 9 0 634.6236916714618 566.7805693084952 706.8161334007907 2 1 0
15806 163 6 0 632.8074257648451 572.5034063246438 707.6371439305287 2 1 0
13390 139 18 0 641.022863695125 552.142447970796 710.5637517504539 -3 1 0
13391 139 10 0 644.8159017125998 552.9192906571801 711.4760165896321 -3 1 0
16994 176 12 0 563.0659408518884 572.8174661913238 699.1635584832534 -1 7 0
16993 176 2 0 563.4977492477112 576.2969899717878 697.5954017213269 -1 7 0
16992 176 9 0 563.1899345924724 578.2898197510701 694.4028506965303 -1 7 0
16991 176 18 0 560.5021845892143 579.6620633510228 691.8505454003886 -1 7 0
16989 176 18 0 555.6389040413486 579.4025798564049 693.9803722172818 -1 7 0
16988 176 9 0 554.8041876409802 577.4950648857645 697.2703394115921 -1 7 0
16987 176 2 0 552.2983725667394 579.5532861678955 699.0777599527795 -1 7 0
16986 176 20 0 549.897619784711 582.1031211583994 697.5005456725377 -1 7 0
17158 177 18 0 562.4018241810434 586.8899048281348 700.8672423541301 -1 0 0
17157 177 12 0 564.269875052946 583.72079768279 700.7745735713422 -1 0 0
17156 177 17 0 561.3231489140951 581.8564575287447 700.4024942322653 -1 0 0
17975 186 20 0 566.2604415247552 576.0016648019572 703.7058331895144 -1 1 0
17974 186 12 0 568.2674620816767 578.7750464675936 702.3166521587831 -1 1 0
17154 177 11 0 558.1164428737757 576.7736694080205 702.5450071584652 -1 0 0
17155 177 18 0 560.8110599435804 579.5815580411887 703.537386620343 -1 0 0
17971 186 17 0 567.9309564995377 582.8492767343489 695.5945325115491 -1 1 0
17970 186 2 0 569.0083097462671 585.975605640309 697.7200721297379 -1 1 0
15750 163 17 0 548.996380449182 574.5931131964236 710.9797471734338 3 1 0
17153 177 1 0 554.795366463741 577.42096588507 704.335341410557 -1 0 0
17152 177 15 0 555.2999254550875 574.5100778923799 706.8796192456617 -1 0 0
15752 163 13 0 651.1344969220911 581.2352443641372 710.2612766432561 2 1 0
17159 177 15 0 559.1320253723981 588.2043323763418 702.6615169295845 -1 0 0
17976 186 2 0 569.2352620107223 573.9560762738662 704.6662810614129 -1 1 0
17952 186 12 0 568.6311067939769 593.1822916194579 705.6836990177632 -1 1 0
17165 177 2 0 550.6072494226636 596.1737113828314 699.6119725342644 -1 0 0
16983 176 12 0 549.6975314790317 588.5076426563073 704.2730793073835 -1 7 0