LAMMPS data file via write_data, version 8 Apr 2021, timestep = 11390002

6208 atoms
40 atom types
6144 bonds
1 bond types

548.8454457994151 651.1545542005849 xlo xhi
548.8454457994151 651.1545542005849 ylo yhi
548.8454457994151 1265.009204607604 zlo zhi

Masses

1 131.199997
2 57.0499992
3 128.199997
4 101.099998
5 156.199997
6 71.08000180000001
7 115.099998
8 129.100006
9 163.199997
10 99.0699997
11 113.199997
12 128.100006
13 186.199997
14 147.199997
15 87.08000180000001
16 137.100006
17 114.099998
18 97.1200027
19 103.099998
20 113.199997
21 131.199997
22 57.0499992
23 128.199997
24 101.099998
25 156.199997
26 71.08000180000001
27 115.099998
28 129.100006
29 163.199997
30 99.0699997
31 113.199997
32 128.100006
33 186.199997
34 147.199997
35 87.08000180000001
36 137.100006
37 114.099998
38 97.1200027
39 103.099998
40 113.199997

Bond Coeffs # harmonic

1 9.6 3.81

Atoms # full

16068 166 18 0 554.4127366398288 563.8816662384722 558.0102365225225 2 4 0
16051 166 9 0 554.90411214294 559.9446909568165 552.6231814526835 2 4 0
16055 166 13 0 565.0570236678504 562.6008504777242 551.1847492263369 2 4 0
16052 166 2 0 557.3145266464575 562.6021789330531 552.7617624166252 2 4 0
16054 166 6 0 562.6593106740103 564.2942710070445 554.1594999435898 2 4 0
16067 166 6 0 556.9441927235476 563.8252711561737 560.6915259806943 2 4 0
16069 166 13 0 550.9512128463186 564.0608139196765 559.5238102424355 2 4 0
16053 166 12 0 559.3032127551188 565.5552153647229 553.8666817513244 2 4 0
16070 166 1 0 550.9939008587863 562.6088768095424 562.9315691134545 2 4 0
16056 166 17 0 567.4166121408056 559.6535987666729 551.6245627765749 2 4 0
16050 166 1 0 556.7445521268753 556.6105511958835 553.0522946033162 2 4 0
16049 166 2 0 554.127918960291 554.4666375144503 551.9668411877974 2 4 0
16071 166 2 0 551.2943095251755 560.8076755710481 566.1948088585842 2 4 0
13011 135 9 0 566.4197948173329 549.8203882366251 565.976114108195 2 -1 0
16065 166 15 0 558.2633856085804 559.8926936163095 563.4306827466877 2 4 0
16064 166 12 0 558.9073179479537 556.4960855346001 562.6554677538718 2 4 0
16066 166 15 0 560.2998452941315 562.445058443867 561.2365856332087 2 4 0
16061 166 17 0 567.032969019961 560.6420099337261 559.1311686959799 2 4 0
16062 166 12 0 563.759187019092 558.5079171519876 558.776364334302 2 4 0
16063 166 4 0 560.9938457084409 556.4770536592132 559.6406007344583 2 4 0
16568 171 17 0 550.5812127257824 567.8299689039217 551.1133013946858 3 1 1
16047 166 6 0 549.482345277031 552.0587062151906 550.4852773222519 2 4 0
16041 166 17 0 549.8654433991194 549.4889945189876 565.1688049082162 2 4 0
13012 135 18 0 562.4952385862711 549.8450416622501 566.6152377527089 2 -1 0
16048 166 9 0 552.8766143569519 552.2575599300127 548.9993903172269 2 4 0
13015 135 9 0 553.4708257409854 554.4041356056999 568.69011280223 2 -1 0
13014 135 18 0 556.8846667219009 552.730832260139 569.516256316031 2 -1 0
13013 135 12 0 560.1137284208202 552.2433135176162 567.9028321813468 2 -1 0
16057 166 12 0 571.173866075882 559.0125115334565 550.8437742729662 2 4 0
16059 166 2 0 572.0881883450774 560.2956660681796 556.4355181925359 2 4 0
16058 166 12 0 573.3329187499701 560.8481653805641 552.8177173518353 2 4 0
16495 171 10 0 575.2522766114308 552.5126723525495 560.4805326285715 3 2 1
16494 171 18 0 576.303303810993 554.1988394986372 556.7046697591447 3 2 1
16493 171 17 0 579.1280234120042 554.2511883551107 554.015421337252 3 2 1
16492 171 20 0 579.7088566000369 556.835793974042 550.9754471153983 3 2 1
16060 166 14 0 570.8484180297868 561.716762554023 559.7663485857413 2 4 0
17516 181 17 0 588.5082596862504 550.4158552858255 560.1022975050181 10 -4 1
16496 171 12 0 571.5650464128029 551.7583399024736 561.1913263022117 3 2 1
17515 181 14 0 588.3698152137388 551.4381391229739 556.4848843701833 10 -4 1
17512 181 12 0 582.1916290112349 549.4627166229592 551.8539689699386 10 -4 1
17544 181 17 0 599.4459207860214 552.5997021884583 550.8803358135402 10 -4 1
17543 181 18 0 601.757876404744 555.890029842901 549.6514384008277 10 -4 1
17545 181 12 0 600.9394934981459 549.2931361124994 549.9584913727837 10 -4 1
17535 181 12 0 609.4916614880458 551.0689200900445 560.1079321860607 10 -4 1
17541 181 1 0 607.2164101379561 556.4944443444667 554.0391466914684 10 -4 1
17542 181 11 0 604.9535745125594 557.2179110773523 551.077017611507 10 -4 1
13068 135 2 0 608.1232033207054 566.374186594505 560.1269064437334 1 -1 0
13070 135 12 0 605.0547138163914 568.0163411805202 556.5744739874226 1 -1 0
13069 135 10 0 604.4122331995105 565.4798121785857 559.0100486608575 1 -1 0
17518 181 4 0 591.6704061737204 548.9180250182252 565.3191511271452 10 -4 1
17519 181 12 0 591.7313768030552 549.1194489262108 569.1911751405751 10 -4 1
17536 181 2 0 611.5630473655978 554.1314229755424 559.768930111639 10 -4 1
17539 181 2 0 612.3660801787054 553.0303174765857 552.3901043870392 10 -4 1
17540 181 15 0 610.8166970836706 556.8026710357241 552.1275764712495 10 -4 1
17538 181 17 0 615.3023274613398 551.9465018874706 554.5178910869209 10 -4 1
17537 181 12 0 614.6461376562494 553.2315914017137 558.3058704610263 10 -4 1
13063 135 1 0 622.6626427308142 562.2603371276107 556.083415020597 1 -1 0
13064 135 2 0 619.8319659499189 564.6455624262011 555.1112884673113 1 -1 0
13061 135 18 0 623.4129029853624 556.9734340288823 552.0001580133502 1 -1 0
13062 135 13 0 622.9477017696079 561.0755783467625 552.3997166037128 1 -1 0
13058 135 15 0 627.4716328839434 551.2114706237381 553.776115050472 1 -1 0
13065 135 18 0 617.255246177141 564.6605950564377 557.5618357137132 1 -1 0
14081 146 18 0 624.0728346267595 550.2788518690705 565.6506052557745 -1 0 0
14082 146 9 0 626.6312193959852 551.8460601616149 563.5094670466115 -1 0 0
14080 146 12 0 621.2510363292455 550.6744172001789 567.9770749851123 -1 0 0
13057 135 12 0 628.0490125381139 553.2657890683148 557.0398509910437 1 -1 0
13056 135 4 0 628.4634831804503 556.606676449953 555.5691458531318 1 -1 0
13055 135 12 0 630.0801557034149 556.6994619538084 551.7995762724804 1 -1 0
13067 135 9 0 611.4602683025997 566.6718003354628 558.8446419708645 1 -1 0
13066 135 17 0 614.4876686840887 567.4331482424129 556.7851978768882 1 -1 0
13060 135 6 0 624.333516473705 553.8077246892819 550.0400740189413 1 -1 0
13059 135 15 0 625.4275877259132 550.2678489709692 550.593762642501 1 -1 0
15560 161 10 0 633.6423202062437 568.4256473941994 550.082611384062 -1 -1 1
16577 171 15 0 642.5085325177408 556.5963172715972 568.634602967492 2 1 1
16576 171 18 0 644.979608171042 557.6124522179529 565.9552087333984 2 1 1
16575 171 12 0 645.3769454277272 557.7653218010413 562.1686520165978 2 1 1
16574 171 17 0 647.1526323026533 559.362947135978 559.4684303343678 2 1 1
16573 171 18 0 645.9411335926475 562.6047202064449 558.3012496970719 2 1 1
16572 171 11 0 645.1947008908671 563.0585056905293 554.7316858945259 2 1 1
13038 135 10 0 641.2172470049072 553.2598475036119 551.7382721195639 1 -1 0
15543 161 13 0 648.8859795972982 567.634088582799 565.3505720064716 -1 -1 1
15544 161 9 0 649.0867761052497 566.829790186876 568.8103333592081 -1 -1 1
16571 171 1 0 645.2864251052312 566.5097634559102 553.8929002375585 2 1 1
16570 171 15 0 648.063272351478 568.9551888962251 554.4931193435846 2 1 1
16569 171 2 0 650.5268840523598 566.1601067427714 553.949942968171 2 1 1
13054 135 17 0 633.7922715244828 557.3142125740544 551.0518870116157 1 -1 0
16040 166 18 0 648.6846617834659 549.9917383602955 567.2232391723958 1 4 0
13037 135 12 0 642.5689403658613 550.0736197747568 553.5710246196174 1 -1 0
13039 135 18 0 637.9569398237835 553.5449854390806 553.593910924025 1 -1 0
16045 166 10 0 649.3596581978547 549.4702948434278 554.9023036313583 1 4 0
13041 135 9 0 634.7130543625572 550.6761154311546 549.4236872354544 1 -1 0
16031 166 17 0 639.1616917324769 550.7286506736822 561.0856652341655 1 4 0
13040 135 6 0 637.039080244626 550.2829450553215 552.3697428246328 1 -1 0
16072 166 18 0 650.9408091868124 560.0155440062167 569.1307622016582 1 4 0
15545 161 2 0 645.7364256465282 567.1065399321378 570.1708004299353 -1 -1 1
14673 152 17 0 559.1629509637362 576.9039166396522 550.3722623401486 0 0 0
15539 161 12 0 554.5358800757734 572.6332236284426 555.4391562149656 0 -1 1
15540 161 13 0 552.5353211785861 571.9313224102428 558.6408209254737 0 -1 1
15541 161 2 0 549.9054912547334 570.0165494752707 560.6348482259888 0 -1 1
15536 161 18 0 560.7963178280291 575.5259975052666 562.8073207887954 0 -1 1
15537 161 9 0 558.9525471863203 576.9125310995366 559.6101904098675 0 -1 1
15534 161 18 0 560.1599221908776 580.2066082101945 568.2273126187201 0 -1 1
15538 161 2 0 557.865890897727 574.544274904026 556.668959320805 0 -1 1
15535 161 12 0 560.0497676479296 576.8757267018067 566.3294512864378 0 -1 1
15532 161 2 0 558.7416863987481 586.9443342946964 569.9682147973963 0 -1 1
15533 161 9 0 560.3841215272054 584.0099410800625 568.5231485741747 0 -1 1
16533 171 9 0 566.9381280208208 582.2834754523265 549.8219671934216 3 1 1
15527 161 12 0 549.235717667569 587.7691399794629 569.9449611018025 0 -1 1
14674 152 6 0 558.7314420820949 573.3356771051687 551.7504978562542 0 0 0
14744 152 12 0 565.2592875638248 569.360145503352 551.1155308903841 0 0 0
14675 152 12 0 557.3470782744959 570.984192702034 549.3787044218229 0 0 0
13071 135 18 0 606.8406488968423 571.6288203743478 556.1499262070932 1 -1 0
13072 135 18 0 604.7229228738898 573.562705137877 553.510313960984 1 -1 0
13074 135 2 0 601.4426268676697 577.0475883649641 551.1630997456533 1 -1 0
13077 135 2 0 601.0310944373604 586.4484453293909 554.29375615598 1 -1 0
13078 135 15 0 603.8390797573312 588.2474902677661 555.5819206754287 1 -1 0
13076 135 17 0 600.6208206959658 582.5601067895925 554.3762195624829 1 -1 0
13075 135 12 0 603.0357192885693 579.2082079418402 554.1752149869594 1 -1 0
13073 135 12 0 604.4803668749473 574.7992742872074 549.9059248035996 1 -1 0
13085 135 15 0 607.5080170139187 580.3774727055787 565.8863023365275 1 -1 0
13083 135 12 0 603.4138466192052 585.0153204211016 564.4013261990136 1 -1 0
13084 135 18 0 603.9989635110776 581.3842945567552 564.3824786689038 1 -1 0
13082 135 17 0 604.7666953338786 588.3371932629653 566.1890941752794 1 -1 0
13095 135 12 0 609.6203246049162 587.2403273389695 555.5886099327755 1 -1 0
13086 135 2 0 610.6425311007408 581.8351217134675 564.7361989627649 1 -1 0
13089 135 10 0 619.9119521585313 584.7006271341197 564.9505906427556 1 -1 0
13090 135 6 0 621.1213948048423 585.2570045077603 561.6593644041544 1 -1 0
13091 135 2 0 619.7053153265207 582.1861341371051 559.848528164671 1 -1 0
13087 135 9 0 614.0337275023493 581.1550021951696 565.3120184288443 1 -1 0
13088 135 5 0.75 617.6767927775929 581.8186991475732 566.5032034345212 1 -1 0
13092 135 9 0 616.6760835165844 579.7477993341004 558.7232077387226 1 -1 0
13094 135 4 0 610.8643627156488 583.6864727925309 556.500044710622 1 -1 0
13093 135 8 -0.75 613.8463090534702 581.0428827083974 556.2221988383517 1 -1 0
15542 161 12 0 648.9226513238017 570.4003261350579 562.6026476422514 -1 -1 1
15549 161 12 0 650.1236952369912 575.50619264457 570.6787040834524 -1 -1 1
15557 161 2 0 640.2743383936344 573.5721336996863 554.5174135501467 -1 -1 1
15556 161 17 0 642.8985171146375 576.4158866532193 553.7042497685208 -1 -1 1
15555 161 18 0 645.1549604119106 578.9928000306596 555.5761857856905 -1 -1 1
15554 161 1 0 647.7797954108804 577.0317430285754 557.9705909946877 -1 -1 1
15553 161 9 0 645.7642572655966 577.3947361667941 561.2345684415565 -1 -1 1
15552 161 12 0 645.2067763327161 579.9447978590476 563.7021057644408 -1 -1 1
15551 161 2 0 648.07907694554 579.8976012286375 566.0031198697643 -1 -1 1
15550 161 20 0 650.443100587934 577.1841863190721 567.3021414161276 -1 -1 1
15525 161 10 0 648.4763187471592 586.879948944654 564.3227045443682 -1 -1 1
15526 161 12 0 648.6707389042434 586.3492791391674 568.129569391073 -1 -1 1
15559 161 12 0 637.0104563390013 569.4551396651738 550.9608585249215 -1 -1 1
15558 161 13 0 640.0846741716864 570.559804182905 552.8418848831686 -1 -1 1
16526 171 17 0 560.5185013387355 600.1824554126891 550.7230099524111 3 1 1
15523 161 17 0 550.5899164824325 590.693138734287 561.1749206723094 0 -1 1
15522 161 20 0 553.6506837761025 590.9607067089876 563.4311618068493 0 -1 1
15521 161 1 0 556.7784328734625 591.2687217155825 564.8886176490473 0 -1 1
16528 171 13 0 562.590743887077 594.2396143114825 550.6178337837517 3 1 1
16524 171 1 0 564.0569365674424 604.0051880407358 554.7956579167477 3 1 1
16522 171 12 0 567.8689036309828 607.7917513544993 558.6827882784421 3 1 1
16521 171 2 0 567.9181081102583 608.8193172182835 554.887493509976 3 1 1
16523 171 9 0 565.2431390919439 605.1977828546904 558.1672711066954 3 1 1
16525 171 18 0 560.7711416971116 602.5717032643214 553.6485944862741 3 1 1
16527 171 2 0 561.1263872386844 596.9736271292073 552.7840238123597 3 1 1
13079 135 1 0 604.6444332723803 591.615071578323 556.7535777453035 1 -1 0
13080 135 11 0 604.6336301604874 591.8723561330445 560.7001095954761 1 -1 0
13081 135 18 0 607.265199381996 590.4063087153991 563.9757890037587 1 -1 0
15481 160 4 0 615.5361130984267 590.1530086794809 569.3143703592918 -3 -2 0
15491 160 17 0 628.0723558385802 604.4225723138435 549.613809839366 -3 -2 0
15482 160 12 0 617.5960484314818 593.2820108268978 567.5513305668592 -3 -2 0
15483 160 15 0 619.9006153728456 596.3560652770925 566.7139031983746 -3 -2 0
15488 160 1 0 625.8299345789311 605.8341663414625 555.333907904003 -3 -2 0
15489 160 2 0 627.0617328821808 607.8545852815918 552.4984420310182 -3 -2 0
15490 160 18 0 630.6889100734887 606.2429271995208 551.4451416023156 -3 -2 0
15486 160 18 0 624.9124619903283 598.6428003163466 557.9475034239508 -3 -2 0
15485 160 6 0 621.9114780057831 597.7418488050512 559.8739963861117 -3 -2 0
15484 160 15 0 619.6846481557276 597.0425400963783 563.0610050634054 -3 -2 0
15487 160 13 0 624.6477551194591 602.4943514930438 556.9472859434007 -3 -2 0
15515 160 6 0 620.8144946593873 610.0161081591203 556.7138725595574 -3 -2 0
15497 160 18 0 633.1843944519579 599.6940230441584 548.9051365225731 -3 -2 0
15524 161 18 0 649.8944524701045 590.1963755829954 562.9428641181714 -1 -1 1
15499 160 2 0 634.7739791500013 603.7908000493353 553.7634806243311 -3 -2 0
15498 160 12 0 635.5495598061632 601.8747406135441 550.869867924782 -3 -2 0
15500 160 12 0 637.7740707922893 604.714187468025 555.9467861172521 -3 -2 0
15501 160 17 0 636.3527798687995 604.5963754182844 559.3388013407091 -3 -2 0
15502 160 2 0 635.0145810394545 608.0189207175899 560.034279023539 -3 -2 0
16520 171 20 0 568.3368762071827 612.8251496673712 554.0740712691938 3 1 1
16519 171 12 0 571.0705216289659 614.4018955488019 556.4208530271969 3 1 1
16516 171 17 0 572.6075279846397 624.4005505697947 556.6808640457604 3 1 1
16517 171 6 0 570.9320435873647 621.6334872987076 554.8783542200904 3 1 1
16518 171 12 0 570.6438102963479 618.244588641838 555.2523620090693 3 1 1
18039 186 9 0 589.7117775980774 619.1982619112816 558.9672117425569 3 -1 1
16515 171 2 0 572.892731909336 627.1742723141832 553.8767437511127 3 1 1
16514 171 9 0 574.7772095529164 629.2068250469191 551.5074844462209 3 1 1
18042 186 12 0 599.4108246837926 621.1245887616661 563.2322841092763 3 -1 1
18041 186 4 0 595.9773747523298 621.8428463623732 560.8980738633909 3 -1 1
18040 186 8 -0.75 592.8305529813232 619.6159026325436 561.6960719178363 3 -1 1
18037 186 6 0 589.9401827318129 625.2842622241692 555.3176153829056 3 -1 1
18038 186 2 0 590.9408179066185 621.7510217310902 556.377980603164 3 -1 1
18025 186 15 0 601.1727196023396 622.7194860662096 570.4327292443344 3 -1 1
18028 186 18 0 598.4863908801675 630.5740596844983 570.6660512159988 3 -1 1
18027 186 11 0 597.3667694445563 627.2332246892568 568.90182120739 3 -1 1
18035 186 5 0.75 594.5797215617329 628.9761543643086 555.7800992114238 3 -1 1
18026 186 1 0 600.8770726915045 626.0801125004652 568.44378423508 3 -1 1
18036 186 10 0 592.125587145534 627.7690546052542 552.9388883436216 3 -1 1
15435 160 2 0 609.8650741674896 624.8416655057853 565.0056416046499 -3 -3 0
17491 181 2 0 601.4809223841328 630.5121089840914 550.5003946515649 10 -5 1
15434 160 20 0 609.985126890371 623.4612764844815 568.7663450794462 -3 -3 0
15433 160 12 0 607.5636655048917 626.6715613305737 569.5961489787585 -3 -3 0
15520 160 12 0 618.5976182484832 621.3835390149613 556.5139890570766 -3 -2 0
15517 160 9 0 622.7568218947525 614.6718266874277 554.4010146167855 -3 -2 0
15516 160 2 0 623.3171928052767 611.0464689969416 553.8286284215469 -3 -2 0
15510 160 15 0 626.6223864063378 619.1216442695128 561.921347934253 -3 -2 0
15509 160 18 0 628.0065288889392 622.0969294268032 564.4569706499445 -3 -2 0
15511 160 2 0 623.8807443826317 616.6373064283829 563.3142695230215 -3 -2 0
15512 160 9 0 620.4331965204054 616.5158101328047 561.7898332819292 -3 -2 0
15513 160 5 0.75 618.1786524690075 614.3286016625361 559.787815647538 -3 -2 0
15514 160 10 0 617.8611125190828 611.3603963834857 557.3525227482362 -3 -2 0
15436 160 9 0 611.457584574784 623.7825657619331 561.745258039711 -3 -3 0
15508 160 12 0 628.9687305370866 620.4287841857604 567.6378227254899 -3 -2 0
15507 160 17 0 626.7673657662629 617.956772803687 569.6446257830852 -3 -2 0
15506 160 18 0 627.5915505825718 614.9277799933 567.4296236533503 -3 -2 0
15505 160 11 0 630.0687109046089 611.8487285264204 566.3490947157528 -3 -2 0
15519 160 4 0 622.193605205521 621.2709190193866 556.4154393998413 -3 -2 0
15440 160 9 0 617.7772149123307 612.8389367492982 568.8543858310169 -3 -3 0
15437 160 18 0 611.8337756333984 619.6602037065886 563.1120400470866 -3 -3 0
15438 160 12 0 612.9823547957889 616.2624298855974 564.6623530060361 -3 -3 0
15439 160 18 0 614.4098022017416 613.1414416780879 566.4694119248346 -3 -3 0
15441 160 2 0 619.3356441058238 616.0273586366537 570.0793102551393 -3 -3 0
15518 160 8 -0.75 623.3839071663568 618.5755149786904 553.908392654944 -3 -2 0
15503 160 15 0 636.4214419136134 610.2817791348167 562.5813328446453 -3 -2 0
15504 160 1 0 633.8035501178654 611.2643067095239 564.7338663149071 -3 -2 0
16019 166 18 0 644.3697618281382 623.3946408244233 569.3131693509821 1 3 0
16020 166 12 0 641.2455008018997 623.0034931317075 566.9662754235154 1 3 0
16021 166 18 0 639.0700126908885 624.6290455344861 569.5353796728734 1 3 0
16022 166 9 0 637.4954606607398 628.3758147639364 570.6000740610594 1 3 0
16018 166 9 0 647.8464134693045 623.5349911224946 570.2066885301917 1 3 0
13010 135 2 0 568.525644070662 649.0945577354971 566.9977053790196 2 -2 0
17514 181 2 0 588.3861073432316 650.74675929349 553.9215917610546 10 -5 1
17513 181 12 0 584.5719643083471 649.5384149774662 553.1753086675388 10 -5 1
16513 171 13 0 573.9324081511877 632.3152322688384 549.8726032483984 3 1 1
16505 171 12 0 583.2491080412586 636.1180606047932 561.4901034979252 3 1 1
16502 171 2 0 576.3914938447392 639.8455770538313 558.3373254004982 3 1 1
16503 171 9 0 576.4655118090953 637.9979912924639 561.7342582745225 3 1 1
16504 171 18 0 579.7387648599854 636.4957480772672 562.6609599457155 3 1 1
16500 171 12 0 577.1282930996719 645.7828161778446 555.6622065868535 3 1 1
16501 171 20 0 575.9474794074785 643.9574557991368 558.679569101757 3 1 1
16499 171 17 0 574.626244579483 648.8046585616013 554.4037983154765 3 1 1
16498 171 12 0 571.7301582901875 650.5497915718234 556.3056870026197 3 1 1
16497 171 12 0 570.4934820462873 650.7307120032983 559.5486392544171 3 1 1
16511 171 2 0 577.7374129535698 636.9389679449469 549.6478772602549 3 1 1
16509 171 12 0 582.7021386991928 641.4232550338822 548.933404835513 3 1 1
17517 181 12 0 589.5202063852059 649.9174042014295 562.4107878620258 10 -5 1
17520 181 15 0 589.3765356539883 648.1745110611163 570.2179165981241 10 -5 1
16507 171 9 0 582.0200338933548 641.5062126226388 556.3283218580299 3 1 1
13007 135 17 0 577.3260595256902 646.278014577085 566.6754207362914 2 -2 0
13009 135 20 0 572.3136021617769 648.7498134052913 568.719658519885 2 -2 0
13008 135 12 0 574.3829586936998 647.2872407356368 565.2471938977857 2 -2 0
13006 135 12 0 578.4100266458887 642.9804895563856 568.2647931932092 2 -2 0
16508 171 2 0 582.0246810794674 642.971429742236 552.4672711173336 3 1 1
16506 171 18 0 583.0143470029119 639.1858793514936 559.1663759821056 3 1 1
17492 181 12 0 597.8604582195904 631.8653686624727 550.210114048753 10 -5 1
18032 186 15 0 599.9005487220724 636.9392113957034 560.5816411264682 3 -1 1
18031 186 18 0 601.9016284955304 636.0260343219433 563.5254879269578 3 -1 1
18030 186 12 0 598.3874541183252 635.9719294654317 565.5902144536292 3 -1 1
18029 186 17 0 598.7419080421579 633.5430369704999 568.6864263116767 3 -1 1
17552 181 6 0 608.577790481521 645.7621666937802 552.8757085003142 10 -5 1
17546 181 18 0 604.2655449671731 650.328273701519 552.1078694508094 10 -5 1
17527 181 18 0 606.5375658138092 637.3136474646815 567.1160827246464 10 -5 1
17528 181 17 0 608.9090818658582 636.9942003206494 564.3082450327706 10 -5 1
17526 181 2 0 604.9909219973165 636.1035499034986 570.5943893591739 10 -5 1
17522 181 6 0 595.4573699099672 643.2873996871247 569.6821272527792 10 -5 1
17483 181 13 0 603.6434845701976 639.0912420388196 551.5425882686328 10 -5 1
17482 181 12 0 601.8145561480828 638.707824279334 554.8229505328534 10 -5 1
17481 181 2 0 604.5208279032514 638.5461950609051 557.3051128817109 10 -5 1
17479 181 12 0 607.220208300583 633.7379168214139 555.2684749164539 10 -5 1
17553 181 2 0 609.74497420765 642.7830962595139 554.695576295762 10 -5 1
17480 181 13 0 607.6576231295469 636.5607882331087 557.8368679861836 10 -5 1
15457 160 1 0 609.4708689632389 644.3944695842736 568.3219345749745 -3 -3 0
17551 181 10 0 608.6965766403088 645.2362896347635 549.223732578975 10 -5 1
18033 186 2 0 599.6982203514443 633.338848773118 559.0272471622934 3 -1 1
17547 181 15 0 607.2894189002863 650.7834626816086 549.7419389052507 10 -5 1
18034 186 9 0 596.8085812195425 631.8286947604593 557.181511693246 3 -1 1
17533 181 18 0 610.5875527648676 647.1424690734104 557.246514817491 10 -5 1
17534 181 18 0 610.9097439759882 651.0534275440039 557.3057654961045 10 -5 1
17531 181 10 0 612.4539034724843 642.1635628911868 560.7207619279857 10 -5 1
14083 146 2 0 628.4908814333229 650.8323032847666 563.3513273426735 -1 -1 0
14079 146 18 0 620.8770447914121 649.2077543954433 569.621832618971 -1 -1 0
17466 181 12 0 629.9983905603468 639.1602350526633 549.9797053674332 10 -5 1
17530 181 2 0 613.1524724550104 638.2707922945249 561.5108089607255 10 -5 1
17529 181 9 0 612.418431441303 635.4630273401217 563.9179321111726 10 -5 1
17532 181 12 0 611.6255977738083 646.0048987395738 560.5629322863687 10 -5 1
17476 181 18 0 616.3010238657353 634.1154772648555 554.7466256890144 10 -5 1
15456 160 9 0 612.4642187570633 642.5351111102925 566.5179831018722 -3 -3 0
15454 160 2 0 618.6344149369422 644.2126739666859 567.3747172556323 -3 -3 0
15455 160 12 0 616.2706113598852 641.3005093094185 566.6973240520886 -3 -3 0
17554 181 9 0 612.2541581066275 640.1128204596425 554.479473339015 10 -5 1
17475 181 12 0 617.565273595163 631.8452801622717 557.2865974999517 10 -5 1
17474 181 18 0 621.1324115755759 633.5293039410033 558.0431998512705 10 -5 1
17555 181 8 -0.75 615.7253900522265 641.6780562891487 554.9525525634122 10 -5 1
17556 181 4 0 619.4093730911565 642.4404986563691 554.9278182567816 10 -5 1
17557 181 12 0 622.3262772350975 644.8931485538128 555.3451269786436 10 -5 1
17471 181 20 0 627.1509591435055 637.210635492972 562.7068300082615 10 -5 1
17472 181 2 0 623.4411848642217 637.278200782299 563.3167690478122 10 -5 1
17473 181 9 0 621.2025956786488 636.9379685507093 560.4106005572222 10 -5 1
17470 181 12 0 627.5657880632538 635.0427845931484 559.3472341945054 10 -5 1
15453 160 20 0 622.2816420090751 642.5631803821174 566.9920704988087 -3 -3 0
15452 160 12 0 623.3816094371432 639.6358583308484 569.170804952328 -3 -3 0
14084 146 12 0 628.2499262743396 647.1732366775191 565.3825414648721 -1 -1 0
14085 146 13 0 628.4664060813001 648.3777079098872 569.1934622110085 -1 -1 0
17477 181 9 0 613.9493409547587 633.2087540508147 551.9345704482857 10 -5 1
17478 181 2 0 610.6798826123879 632.8803638391968 553.6533666225863 10 -5 1
13036 135 13 0 643.9533097985087 649.3154859271991 551.86788855664 1 -2 0
16046 166 18 0 651.067577042064 650.7457059228915 551.9632598790215 1 3 0
17468 181 12 0 632.6948933500103 634.5523723014138 554.371079295458 10 -5 1
17469 181 17 0 631.1747776255391 634.7822937925577 558.0713410256996 10 -5 1
16033 166 12 0 637.2559366271661 648.075203782747 556.0629872082799 1 3 0
16032 166 6 0 639.2669412031595 650.9927522813052 557.7457037372708 1 3 0
13035 135 2 0 641.0516224307704 646.9945405322475 552.5571024776051 1 -2 0
16038 166 9 0 644.7359349006957 648.2017085824158 563.8020277860634 1 3 0
16039 166 1 0 645.0463324337296 650.990243137276 566.2159424279996 1 3 0
16037 166 12 0 642.6683206290537 645.7570986528708 561.632579300486 1 3 0
16036 166 2 0 640.4666532718969 643.6664051932053 560.1967782549866 1 3 0
16035 166 20 0 637.1352239273958 642.0210692883104 558.6645324200673 1 3 0
16042 166 2 0 651.0181731694947 648.625416990854 563.391821401369 1 3 0
13029 135 2 0 646.9348844664087 639.315526869876 551.7018025886242 1 -2 0
16043 166 13 0 650.5660210523166 646.4852686738874 560.1647153511612 1 3 0
16044 166 12 0 649.6835096455701 650.034671517498 558.3493127321512 1 3 0
13024 135 17 0 648.3848272057688 641.4374591964762 565.589231716336 1 -2 0
13023 135 2 0 647.7502339960683 644.8321920336356 567.1968037094068 1 -2 0
13028 135 20 0 646.2953042377384 636.9247511860747 554.4598905466062 1 -2 0
13025 135 6 0 646.4175604896598 641.1273591139891 562.3836306335122 1 -2 0
13026 135 12 0 643.6049471171476 638.2388063064219 560.8104770997231 1 -2 0
13027 135 12 0 644.110481055868 637.5804454927793 557.0143262434206 1 -2 0
13022 135 9 0 650.6449834330907 646.0997990696795 569.5367267606612 1 -2 0
16034 166 12 0 635.6064335101416 644.4688763583689 556.1402167543239 1 3 0
16030 166 2 0 637.5644854425664 650.0354131089238 562.5286587375974 1 3 0
16029 166 9 0 636.978607251282 649.0793638239098 566.1994241708315 1 3 0
16028 166 13 0 636.512672062086 645.1079678943967 566.0560883505682 1 3 0
16027 166 12 0 638.6790434573799 641.94054516 565.5699942860754 1 3 0
16025 166 13 0 637.1156589587723 636.1792102440085 567.2773152028424 1 3 0
16026 166 2 0 636.7174385173007 640.0453813860156 567.8409397341898 1 3 0
13034 135 17 0 639.4158964097081 643.8763039656428 551.7994884951537 1 -2 0
17467 181 12 0 632.229879444193 636.3914151812894 550.8256398636887 10 -5 1
13033 135 18 0 642.1524784658267 641.857282005425 550.0211194398531 1 -2 0
16074 166 9 0 549.7860101267679 559.0393811786973 575.5755694469752 2 4 0
16079 166 18 0 552.4347685659569 567.5341393092815 574.6520886881473 2 4 0
16080 166 12 0 556.2206434063229 567.8800279441356 576.0600311119313 2 4 0
16089 166 17 0 567.8395608001921 565.798313761973 579.5401134638569 2 4 0
16088 166 18 0 565.3253735373504 568.2616672415173 577.9002692824085 2 4 0
16090 166 12 0 567.6549551425844 564.0981307961329 583.0667117082022 2 4 0
16091 166 18 0 568.7733623801497 561.1868340369509 584.7551754560699 2 4 0
13016 135 2 0 553.4628025689822 554.401391680293 572.7075794009305 2 -1 0
13017 135 12 0 554.4512868512732 552.3785636156765 575.4506460662926 2 -1 0
16092 166 15 0 569.5239579854824 557.4238337714154 584.9912221145919 2 4 0
16097 166 6 0 579.3937442345424 549.4186266197153 584.1659360398787 2 4 0
16093 166 2 0 571.2634456698383 557.0698710457046 581.6356284928057 2 4 0
16094 166 9 0 574.5524515117952 555.813870501419 583.2734482147457 2 4 0
16096 166 10 0 580.0251278959277 553.2046970100095 584.6573951952084 2 4 0
16095 166 5 0.75 578.5263946151923 556.1536286749134 582.8374020618357 2 4 0
15463 160 10 0 608.4155349729916 553.0601373321382 573.7740375858536 -3 -2 0
15462 160 12 0 604.5183688033108 552.0257044499166 572.8968245166949 -3 -2 0
15465 160 6 0 613.8104741291345 556.2674466296459 571.6563109134602 -3 -2 0
15464 160 18 0 612.1743362519684 553.0138134526514 572.1376933005553 -3 -2 0
15466 160 9 0 617.5744604107038 557.1789415683726 571.506475676937 -3 -2 0
15469 160 9 0 612.4800400869678 564.6291525954962 573.5378646223959 -3 -2 0
15470 160 2 0 610.5874599988778 564.7156670003418 576.7040383297833 -3 -2 0
15467 160 2 0 618.1851885306833 561.0116188087925 571.6395179401865 -3 -2 0
15468 160 1 0 615.7128339949667 563.6905787325823 571.5532735745162 -3 -2 0
14069 146 18 0 617.2734464948102 557.3549893608949 585.0788360132964 -1 0 0
14068 146 17 0 620.3798193879895 558.4575725659174 582.946539631421 -1 0 0
15471 160 12 0 611.8256953434227 566.8225551432706 579.7642595181228 -3 -2 0
14071 146 12 0 620.3854909210263 552.7309331780656 583.6270000076082 -1 0 0
14070 146 10 0 616.8061441429564 553.3519374605072 585.0507526047728 -1 0 0
14066 146 1 0 622.9647406077477 561.4836974705458 577.9316914200774 -1 0 0
14067 146 20 0 622.0649580367027 558.124641195789 579.2362726232651 -1 0 0
16578 171 2 0 645.0241159839361 555.4229091237022 571.5675092339227 2 1 1
16579 171 9 0 646.133320960962 553.8687511944554 574.7693446370803 2 1 1
16076 166 10 0 647.8689433227681 564.5816562375901 577.8246892824131 1 4 0
16073 166 17 0 650.7142518885987 557.8559559114921 572.4767258229944 1 4 0
16075 166 2 0 650.0505389122651 562.4409894769014 576.2396547941805 1 4 0
16077 166 12 0 647.7181560058837 568.3595097211594 576.933598573567 1 4 0
16078 166 18 0 650.8495022713539 568.7412583483443 575.3039557923717 1 4 0
16580 171 5 0.75 649.2399112639899 552.029210388748 575.8524108024282 2 1 1
16581 171 10 0 648.7483927033369 548.8914827436992 577.6781928942488 2 1 1
15546 161 17 0 642.3732308774829 569.1043977980634 571.7016747452934 -1 -1 1
16081 166 2 0 555.1367949358972 571.6098215632561 576.406013480975 2 4 0
16082 166 12 0 558.0304693269842 573.8749786459454 577.0043661775917 2 4 0
16084 166 2 0 564.5114227109408 576.9729664746437 578.1107320035508 2 4 0
16083 166 17 0 560.6035220477194 576.6018732365762 576.9283225847867 2 4 0
15531 161 20 0 558.8146697153783 587.025863931458 573.8610834375255 0 -1 1
16086 166 1 0 566.9587908187254 573.737136920328 581.1141675476159 2 4 0