LAMMPS data file via write_data, version 8 Apr 2021, timestep = 11390002

6208 atoms
40 atom types
6144 bonds
1 bond types

548.8454457994151 651.1545542005849 xlo xhi
548.8454457994151 651.1545542005849 ylo yhi
548.8454457994151 1265.009204607604 zlo zhi

Masses

1 131.199997
2 57.0499992
3 128.199997
4 101.099998
5 156.199997
6 71.08000180000001
7 115.099998
8 129.100006
9 163.199997
10 99.0699997
11 113.199997
12 128.100006
13 186.199997
14 147.199997
15 87.08000180000001
16 137.100006
17 114.099998
18 97.1200027
19 103.099998
20 113.199997
21 131.199997
22 57.0499992
23 128.199997
24 101.099998
25 156.199997
26 71.08000180000001
27 115.099998
28 129.100006
29 163.199997
30 99.0699997
31 113.199997
32 128.100006
33 186.199997
34 147.199997
35 87.08000180000001
36 137.100006
37 114.099998
38 97.1200027
39 103.099998
40 113.199997

Bond Coeffs # harmonic

1 9.6 3.81

Atoms # full

14244 147 11 0 645.3781758828728 573.0763389365671 666.2864692830061 0 2 0
14246 147 17 0 643.5854815597289 574.5990355425341 660.070846958084 0 2 0
14245 147 18 0 645.5739161799568 572.3463181679438 662.7750549223929 0 2 0
14065 145 12 0 564.1565979565088 580.0785155048104 660.1847203487064 -1 0 0
14064 145 4 0 566.8394074054646 581.1750048746521 662.3076696221136 -1 0 0
14063 145 8 -0.75 569.2454151640119 584.0324351707985 663.1304395896886 -1 0 0
17137 177 1 0 557.5715559717153 593.0616621310235 665.1714363575504 1 -1 0
17136 177 13 0 558.5133612905686 591.1549726150529 662.0205435908528 1 -1 0
17135 177 18 0 560.7113405980894 588.4935270772733 660.9453103638067 1 -1 0
17133 177 15 0 562.2580248617645 586.9067314239584 665.9855895969544 1 -1 0
17134 177 6 0 563.278380070942 586.5737197737533 662.305387570876 1 -1 0
17132 177 15 0 558.7979017272958 585.7231759600543 667.0251924211019 1 -1 0
17131 177 12 0 555.8713153909351 587.2139865744672 668.1454738198014 1 -1 0
17138 177 2 0 555.5774514967392 596.2976425388583 663.6279419000692 1 -1 0
14059 145 10 0 569.2766707813142 592.701154283656 663.90126192174 -1 0 0
14058 145 5 0.75 566.352830077619 594.5585360612964 665.3430607786686 -1 0 0
17140 177 17 0 555.4176826065557 601.1807039653797 662.8138295620747 1 -1 0
17139 177 18 0 553.0191826436527 598.5969668301982 662.0163949607785 1 -1 0
14062 145 9 0 570.5803846573571 586.1819310086446 659.845499843457 -1 0 0
14061 145 2 0 570.1829910685103 589.7676088656034 660.7752170837138 -1 0 0
14060 145 6 0 569.9485462234666 593.6845006389157 659.9942292739333 -1 0 0
14258 147 4 0 621.4928938422333 588.6443462732474 654.1537410854663 0 2 0
14257 147 8 -0.75 624.6817591469933 587.3970067639555 652.5093585599312 0 2 0
14259 147 12 0 617.8744232646388 586.9018391606018 654.761012585292 0 2 0
14255 147 2 0 629.7907594421287 585.18894377232 652.3826479195275 0 2 0
14256 147 9 0 627.0851049300608 585.7288714068759 650.240680995344 0 2 0
14254 147 6 0 632.9174875378498 586.1287709269372 650.568727386778 0 2 0
14253 147 10 0 635.386013145439 583.8048893899894 652.3968227509124 0 2 0
14251 147 9 0 635.2020736097804 578.9577686393325 658.204227177821 0 2 0
14252 147 5 0.75 635.7029868898438 581.4289591193178 655.7303531008074 0 2 0
14250 147 2 0 635.2075716121332 580.6822846290282 661.3247147203407 0 2 0
14248 147 18 0 640.7243010739476 579.9224507210006 661.791303730774 0 2 0
14249 147 15 0 638.388696697533 582.6965284061271 661.7321296619407 0 2 0
14247 147 12 0 643.265561535807 578.58435049657 659.125989616367 0 2 0
13782 143 12 0 555.574089978581 563.8442541804044 685.4079316369151 0 2 0
13783 143 17 0 554.3714984334367 560.511791512476 686.4546180597821 0 2 0
13781 143 12 0 558.314871427714 562.7294417635952 682.8256094146828 0 2 0
13780 143 12 0 561.457973778461 564.809231938257 683.0096031419283 0 2 0
12424 129 12 0 568.0651402754354 570.1719912575685 686.4099809205261 1 -1 0
13806 143 12 0 549.1904024932244 553.3403550883008 683.2464536231508 0 2 0
13805 143 2 0 551.5875423350817 552.0421894290499 680.4210244607933 0 2 0
13804 143 20 0 554.4007849017091 549.7844325543176 679.2492318838861 0 2 0
13776 143 20 0 567.6047804151792 562.8085274117889 672.0422973780061 0 2 0
13778 143 18 0 566.3372036175999 563.8867630249491 677.7248512558301 0 2 0
13779 143 10 0 564.0847715592271 565.220450600559 680.5512526600706 0 2 0
13777 143 17 0 567.9277307560479 565.8819583177926 674.6558088486878 0 2 0
13789 143 12 0 568.4058018739861 561.9393186757273 685.3415775614798 0 2 0
13775 143 1 0 567.2078132984242 564.4542421909138 668.4069750845277 0 2 0
13786 143 2 0 564.0543249262537 555.5356979178799 688.0046828736911 0 2 0
12423 129 12 0 564.4598893992383 569.415191375473 686.5397816592558 1 -1 0
13788 143 18 0 566.2622363299333 558.9223623164938 684.9611868674585 0 2 0
13787 143 9 0 566.8289671693731 555.0798797444086 685.2932034621579 0 2 0
13803 143 12 0 557.11547617863 551.98322102818 680.8270446989541 0 2 0
13799 143 2 0 567.0500332324721 549.2862389001767 676.6169562044532 0 2 0
13800 143 17 0 567.3954275879756 553.3191912593451 677.2658628595993 0 2 0
13802 143 12 0 560.1059129934547 554.0493712098677 680.0968042998936 0 2 0
13801 143 6 0 563.6049424467068 552.7582103785257 678.6608855707274 0 2 0
12425 129 17 0 571.4666423171765 568.2009276171179 686.485453846675 1 -1 0
13790 143 18 0 572.1708122216609 561.8858024352055 684.9285884353654 0 2 0
13791 143 9 0 575.3191328882247 559.554764109873 685.2303278061072 0 2 0
13792 143 2 0 578.083325918474 556.9328434388833 685.2503392867117 0 2 0
12426 129 12 0 574.9525653223025 568.9248108832136 687.489548720283 1 -1 0
12428 129 2 0 580.6780890557258 569.0681572127709 687.9189046599777 1 -1 0
12429 129 9 0 584.6432945248555 569.1394364169211 687.1560089402951 1 -1 0
13795 143 2 0 572.7196421636775 550.3332286667362 684.4656323798996 0 2 0
13794 143 13 0 575.7154603446012 551.1580514102637 682.5741155740301 0 2 0
13793 143 12 0 577.7967050531157 553.9661718227246 682.6525208633514 0 2 0
12973 134 12 0 623.2713576000683 569.1886568355653 680.1831861919424 -3 2 0
12958 134 12 0 628.9543784565419 555.9541621870967 687.5057874745323 -3 2 0
12961 134 15 0 626.9334810108846 559.1613460799124 679.0177916411124 -3 2 0
12959 134 4 0 626.1307765302499 556.1717241032043 684.5975901823515 -3 2 0
12960 134 12 0 628.3772722413323 557.2496654758068 681.5402616311816 -3 2 0
12977 134 2 0 616.6504517467054 571.0712686497593 686.7459308060066 -3 2 0
12978 134 12 0 614.2588321970908 573.9130798142739 687.0327175869705 -3 2 0
12974 134 18 0 622.3507149359073 567.3155606975047 683.1552074810974 -3 2 0
12975 134 18 0 622.1524345411752 570.0925699872798 686.1680333380305 -3 2 0
12962 134 15 0 625.4784496098273 562.6551518110251 677.5257658661335 -3 2 0
12972 134 10 0 621.513793451843 569.5782242849735 676.8890905131866 -3 2 0
12971 134 2 0 621.3370323133292 573.3782527238232 677.4202490709018 -3 2 0
12965 134 13 0 628.7120165905673 572.4610720887308 681.7325883895257 -3 2 0
12964 134 18 0 628.7911437076283 568.8113439166613 680.6165598698445 -3 2 0
12963 134 6 0 627.5910823267133 566.1588043371146 677.9238363231385 -3 2 0
15796 163 11 0 624.4753948513576 550.2778392081079 687.2295543326308 1 0 0
15795 163 1 0 623.7108467813672 551.5265813170099 683.6166424439145 1 0 0
15794 163 15 0 621.9351879716671 549.4593639102386 681.4743807589094 1 0 0
14242 147 15 0 647.6458942739097 571.6158977789676 670.5911572922879 0 2 0
14243 147 1 0 647.0133755095492 575.117495365442 669.2227588803139 0 2 0
13808 143 1 0 646.7196511772377 559.2685817216866 685.775122138218 -1 2 0
13807 143 9 0 649.4083425776543 556.4415054143356 684.2901333689953 -1 2 0
14234 147 12 0 642.9917750961803 566.8587986468983 679.9394656528065 0 2 0
14235 147 18 0 642.0723005579467 569.7127928494622 682.0848381555617 0 2 0
14237 147 12 0 637.9281588930003 571.6666188576745 677.6816546762591 0 2 0
14236 147 18 0 641.4229554358154 572.295438319017 679.3795216592116 0 2 0
14233 147 10 0 642.9612671136626 563.3920423631232 681.1442652151455 0 2 0
14232 147 2 0 639.9220967756063 562.2230959336267 682.3899156698659 0 2 0
14231 147 9 0 637.9139586284304 560.4089504066982 684.7226534087798 0 2 0
14240 147 17 0 642.9441337672033 569.1236047422601 670.3217595331922 0 2 0
14241 147 2 0 646.598736109615 568.0144996586001 671.4258475714628 0 2 0
14239 147 12 0 641.0182452897595 568.0303710284238 673.3892925217723 0 2 0
14238 147 2 0 638.3641417111251 570.791641286214 673.7288032180289 0 2 0
14230 147 17 0 635.611814208386 557.8698140968148 685.5924677064912 0 2 0
14229 147 18 0 635.0640185903584 554.0905677461114 685.3698907960691 0 2 0
14224 147 6 0 643.4026314364188 553.014573796009 686.0161811911784 0 2 0
14223 147 15 0 641.3596916094295 549.6225458346387 685.9378190632926 0 2 0
17128 177 17 0 563.3604189265772 586.333033859189 673.6863587011637 1 -1 0
17129 177 12 0 561.8788019709583 589.0446338992898 671.9425510855607 1 -1 0
17130 177 4 0 558.0607308103024 587.8954835663968 671.6973602621264 1 -1 0
17127 177 14 0 564.3072585004877 582.9867244213684 673.6371688461189 1 -1 0
17126 177 2 0 565.933849049937 582.217448173397 677.1646178090391 1 -1 0
17124 177 12 0 563.7063679016965 582.5615785032896 683.4214625167768 1 -1 0
17125 177 12 0 564.6940478342827 584.0584761274459 680.5290499527845 1 -1 0
17123 177 17 0 563.7242167984791 584.8272065382142 686.670860652691 1 -1 0
14050 145 11 0 549.4149474986823 596.4367661428215 674.0975699811503 -1 0 0
14053 145 12 0 559.4684091306708 598.3626107945148 677.655468685857 -1 0 0
14051 145 18 0 553.0261323352838 597.2021499851146 674.6518987093201 -1 0 0
14052 145 17 0 556.7867135716305 597.4169196351808 675.4555489782462 -1 0 0
17121 177 6 0 564.331963771407 591.4038855190167 687.2389201417501 1 -1 0
17122 177 13 0 561.9576421608523 588.3234646081801 686.3529932455543 1 -1 0
13884 144 9 0 568.6125699541725 581.6408739690917 687.4632997948975 1 0 0
14054 145 18 0 561.9504750126624 600.508680076932 675.0308653776178 -1 0 0
12479 129 18 0 568.3370468732107 600.0761767277849 686.7191553927532 1 -1 0
14057 145 9 0 564.4901596126848 595.5291102058951 668.3801643605475 -1 0 0
14056 145 2 0 564.8982128427324 598.5124980472323 670.78523034329 -1 0 0
12481 129 1 0 562.573613898598 600.7641837537122 686.0518317081971 1 -1 0
13883 144 2 0 570.0818570226128 584.7090754285803 686.2495854582891 1 0 0
13882 144 20 0 570.9539010584629 588.392215375842 684.8583516372292 1 0 0
13881 144 12 0 574.4521653806097 587.3478516955173 686.498902371154 1 0 0
12503 129 15 0 576.3234791101557 584.5895175608729 670.9921123602657 1 -1 0
12504 129 2 0 580.1774640395558 584.3924440413962 670.944261136764 1 -1 0
12507 129 10 0 578.5692808104125 579.4802703815969 676.0097658898072 1 -1 0
12505 129 9 0 582.4031323031413 581.4137878141833 671.7331954690356 1 -1 0
12506 129 5 0.75 580.2045033346704 578.712402061211 673.2413282809266 1 -1 0
12502 129 18 0 576.3743110981719 588.1010319109884 668.8754637830674 1 -1 0
12508 129 6 0 579.513045719697 577.5325428627616 679.2994862088109 1 -1 0
12509 129 2 0 580.3960904738058 580.7221452431532 681.5161056947574 1 -1 0
12510 129 9 0 583.6822412982381 580.8622085881791 683.3971383218304 1 -1 0
12511 129 8 -0.75 584.1653004730362 584.3174903508032 683.7600399283275 1 -1 0
13876 144 10 0 576.2853832918527 583.8816635742239 681.3143714195648 1 0 0
13874 144 17 0 578.0922663554929 586.4368484947305 676.9435059940712 1 0 0
12512 129 4 0 583.8292378719874 585.987556185878 687.3011658158267 1 -1 0
13875 144 18 0 575.2362096143319 586.8937082755343 679.8005013809931 1 0 0
12501 129 12 0 573.6785379491123 590.6373761567022 669.0579384511154 1 -1 0
12500 129 17 0 571.6652709946396 593.6686175166467 669.6141321750404 1 -1 0
12499 129 18 0 569.9150811787102 595.2962236319544 672.1941766317763 1 -1 0
12498 129 11 0 572.1956988137863 597.5949968754217 674.5516753320472 1 -1 0
13877 144 12 0 573.8696673702569 581.1600222469607 680.6593086886153 1 0 0
13878 144 12 0 573.6071154121835 578.4131366943477 683.455481476254 1 0 0
13879 144 12 0 575.3546347247876 579.710613181161 686.9494933666151 1 0 0
13880 144 17 0 575.1369032033728 583.7495561774368 687.8771757833459 1 0 0
12442 129 17 0 588.5898346626228 591.0265718183051 680.9827615629958 1 -1 0
13872 144 1 0 583.4379744699557 589.1847671529327 677.0897056189492 1 0 0
13873 144 20 0 579.8115540370397 589.9385990270929 675.756714980683 1 0 0
12478 129 6 0 569.6421594045707 596.7822527674751 686.4135723038341 1 -1 0
12496 129 15 0 574.5364984500166 598.0240489341211 680.2569317604815 1 -1 0
12495 129 2 0 573.6404643451374 599.5181225046005 683.8964590164793 1 -1 0
12497 129 1 0 574.2961122225358 595.704267201888 677.0200143412627 1 -1 0
12433 129 9 0 596.1731929012977 577.1442294047722 687.0878796281086 1 -1 0
12434 129 2 0 598.6272431422 578.0165288363452 684.4084502865603 1 -1 0
12432 129 18 0 592.9812538463972 575.0991851913224 686.6896473067926 1 -1 0
12436 129 13 0 596.0718295560467 583.1502803406673 680.6976519897366 1 -1 0
12435 129 12 0 597.9478849126209 580.5786569347476 681.5381191090844 1 -1 0
12444 129 12 0 594.5489088337417 589.4578019892039 683.6489193764792 1 -1 0
12445 129 12 0 598.1286534517288 589.9970037036644 684.8615141157414 1 -1 0
12446 129 20 0 600.0531908849025 586.5526608212493 684.8310913869931 1 -1 0
12438 129 12 0 595.7901651128429 588.090132006938 675.9984048263738 1 -1 0
12439 129 13 0 595.2255962520168 591.7083588689402 674.5376654480377 1 -1 0
12440 129 9 0 593.9480145432381 594.2676891721153 676.8179044879025 1 -1 0
12437 129 2 0 596.6946097955245 584.7280367881399 676.997260993394 1 -1 0
12441 129 2 0 591.9546403603196 592.9086059948697 679.6498294454495 1 -1 0
12443 129 6 0 591.4233224829082 588.3079898730182 681.7071529939604 1 -1 0
12447 129 2 0 598.5920810226258 584.0425868657616 687.3437811655624 1 -1 0
12970 134 9 0 621.7153752013065 576.7285284533245 675.6754745132283 -3 2 0
12969 134 17 0 622.7798811991041 579.9090041304062 676.6885815969159 -3 2 0
12966 134 1 0 627.7177475489135 575.8765502343687 683.3673565074381 -3 2 0
12968 134 18 0 625.8215746356085 580.3152294463706 678.669869941303 -3 2 0
12967 134 2 0 628.7617641949241 578.6741604738612 680.7625135309052 -3 2 0
12933 134 12 0 628.4010081852782 595.9759836104625 686.5502152602523 -3 2 0
12934 134 9 0 628.0912798281329 591.9119452214481 687.3293787358213 -3 2 0
14048 145 15 0 646.69243101329 598.0062708323226 675.5776328279969 -2 0 0
14049 145 1 0 648.640900402623 597.4614455884351 672.7272990693591 -2 0 0
14047 145 2 0 646.4515628266789 599.3674858282994 679.134321564793 -2 0 0
12929 134 12 0 638.347229077166 592.6928380361426 687.0667139347976 -3 2 0
12928 134 6 0 642.1122772714903 592.8939341896391 686.562713316167 -3 2 0
14045 145 12 0 641.4601809627835 598.4628861080959 682.5447052133866 -2 0 0
14046 145 17 0 642.5159229404585 600.3953577719919 679.1432962200148 -2 0 0
13391 139 10 0 648.2472722633868 599.3274808043662 686.2637479741626 -6 5 0
12418 129 20 0 549.8712860351255 567.1793834568055 691.7933734441912 1 -1 0
12420 129 18 0 555.9406065978812 571.8501338877949 690.999439210581 1 -1 0
12419 129 17 0 552.7213266436784 569.8658359068156 690.7935079186068 1 -1 0
12421 129 10 0 559.9306540210696 571.2431298717255 691.1851771734299 1 -1 0
13916 144 1 0 554.9134148180134 552.5446940835352 699.04201342378 1 0 0
13915 144 2 0 554.2569011679548 556.2377525667123 697.7798629457037 1 0 0
13914 144 9 0 556.2721180506362 559.3747372808289 696.2247790532865 1 0 0
13913 144 6 0 558.5597423090436 562.0125143976661 697.2938660097632 1 0 0
13912 144 18 0 562.0004885519941 563.545974548439 695.3103415702169 1 0 0
13910 144 12 0 564.886645858885 566.6723315100485 701.0592847400616 1 0 0
13911 144 10 0 565.1199122685967 564.3048112564862 698.0834005382078 1 0 0
13909 144 13 0 563.4109533986197 570.099108549287 700.3527382502245 1 0 0
13908 144 2 0 566.3327079311789 572.8887517371747 699.7658384151079 1 0 0
13784 143 12 0 556.9552849796289 558.2420565016579 688.4526424479797 0 2 0
13785 143 20 0 560.499798150781 556.6430522021014 689.4962182835618 0 2 0
12422 129 12 0 562.3484850610122 572.3938716485819 688.325832167107 1 -1 0
13889 144 2 0 559.6459233871416 575.0078313958624 695.4775872895332 1 0 0
13890 144 12 0 556.4027390911506 575.1020977409944 697.5796360652587 1 0 0
13927 144 17 0 561.1300198841705 550.9621571594594 692.0945734023603 1 0 0
17032 176 12 0 560.8826042987839 553.17792170007 699.7779309100291 1 3 0
17031 176 17 0 560.9302865499685 556.4169322645737 701.7238319955648 1 3 0
13891 144 13 0 554.9063468406874 572.203451304331 698.7547835350695 1 0 0
13917 144 9 0 553.2532825305752 550.0635432687974 700.5578877844221 1 0 0
13893 144 12 0 557.3233893912727 567.3830812703852 703.3025124419937 1 0 0
13892 144 2 0 556.4735228522087 570.255435138479 701.3308980501514 1 0 0
13894 144 13 0 556.8927537824169 564.5423076657379 705.4870552627734 1 0 0
17030 176 14 0 560.702472387402 556.2025882011351 705.9085746903895 1 3 0
17033 176 4 0 564.0215192650413 551.8560033627812 698.8436112464432 1 3 0
13887 144 18 0 565.6087205239454 574.6061892839214 693.7595775185933 1 0 0
15316 158 15 0 557.9777529512295 574.8887918855169 707.7267142400746 0 1 0
15317 158 2 0 559.9513999974959 571.5588955476785 707.0821211139971 0 1 0
15318 158 9 0 563.5053405612352 572.1291681217343 707.4357818588102 0 1 0
17034 176 12 0 565.7197500190234 548.9803246698574 697.068587802857 1 3 0
13928 144 12 0 563.2060934400347 549.98307448059 689.1493984515843 1 0 0
13926 144 14 0 557.8494044917239 551.8910241752116 693.9366445772291 1 0 0
13925 144 2 0 555.3253979880025 549.5342591104669 692.9195782434514 1 0 0
12430 129 18 0 588.032399692273 570.7061376609203 688.6847055623233 1 -1 0
12427 129 20 0 577.8426707372414 567.0591939418979 688.6730007976405 1 -1 0
13907 144 17 0 570.0513185310256 572.7935291208638 699.1842644842905 1 0 0
13906 144 18 0 569.6801426351933 572.4746255290041 702.951546269198 1 0 0
13905 144 1 0 570.8305344206867 569.4647305116396 704.505562988287 1 0 0
13904 144 9 0 570.6956189639403 566.9464665387814 707.0401594780841 1 0 0
12454 129 13 0 589.003843810857 573.6139734669175 701.9001735733813 1 -1 0
12431 129 12 0 590.8663925067735 573.276922143818 689.5597379763643 1 -1 0
12453 129 2 0 592.7113124488214 573.6848846388459 700.3707808993025 1 -1 0
12452 129 17 0 594.7845703611175 571.8460597805279 697.6272261295028 1 -1 0
12982 134 1 0 608.9588659786933 573.2144365127767 698.1432280376644 -3 2 0
12980 134 2 0 609.5058524897846 574.0432170156164 691.7087225926837 -3 2 0
12983 134 11 0 609.6028747364468 573.3852151644168 701.929927247404 -3 2 0
15806 163 6 0 605.8325140854158 549.5345594623716 704.0390703120206 1 0 0
15805 163 10 0 606.9259222843757 550.8355932820231 700.7401639839546 1 0 0
12957 134 17 0 628.996259999077 559.5028521115282 689.0253415060674 -3 2 0
12956 134 14 0 629.3770273896637 562.8514202159719 691.7296024347629 -3 2 0
12976 134 12 0 619.3557481645777 569.1961568600906 688.489002609569 -3 2 0
12979 134 17 0 611.5722430731186 571.8918221057063 689.016244159314 -3 2 0
13869 143 8 -0.75 619.2952460329977 555.6951211526762 702.8226042372194 -1 2 0
13867 143 2 0 619.4654130038839 550.3092159207791 705.4751400852034 -1 2 0
13868 143 9 0 617.8686860001735 553.8982500992421 705.6205890388995 -1 2 0
13870 143 4 0 619.1879158124393 558.7173793021112 700.446332003585 -1 2 0
12950 134 6 0 619.8227002716839 559.7931212803027 693.6008195939446 -3 2 0
12949 134 12 0 615.8459794010497 558.1122808912774 693.3696917211023 -3 2 0
12948 134 2 0 614.924494088257 559.2389474992174 689.5440252095417 -3 2 0
12951 134 13 0 623.2357626519517 558.4814639689761 692.6159806133106 -3 2 0
12941 134 10 0 618.1796822684146 574.9685280194824 694.2950890180888 -3 2 0
12947 134 9 0 617.6358351940039 561.9751219519914 688.6777195582292 -3 2 0
12981 134 15 0 611.7293272230794 573.8856485129254 695.3139884088525 -3 2 0
15759 163 1 0 626.5596874643155 574.9176633735311 706.1527561501636 1 0 0
15767 163 12 0 619.6905943009472 565.9974338210857 702.9444565219568 1 0 0
15768 163 2 0 616.9209730231864 564.4800615364215 704.5687596883537 1 0 0
15765 163 17 0 623.1411861484656 563.8053932268117 707.6878485255139 1 0 0
15766 163 12 0 622.6466347384146 566.5760103422294 705.223034542627 1 0 0
12944 134 9 0 620.1004797406298 565.3730295282841 695.7817026954565 -3 2 0
12943 134 6 0 621.860066536452 568.8337629379953 696.7929959067126 -3 2 0
12945 134 2 0 618.1467037149407 566.1597485739533 693.0041684648819 -3 2 0
12942 134 18 0 619.8307746862008 571.9032900390829 696.3073973232295 -3 2 0
12946 134 1 0 615.4183016287585 564.2205684777286 691.0371788992322 -3 2 0
13871 143 12 0 622.0095619221712 560.835523796298 700.0476127880273 -1 2 0
12953 134 12 0 628.278220295986 558.4974170685441 697.7650851856413 -3 2 0
12952 134 17 0 625.7665344014664 556.7862198435225 695.0234094330905 -3 2 0
15717 163 17 0 630.6765338986432 568.3946091859569 702.9876372272769 1 0 0
15716 163 20 0 629.9952142728285 570.0992092765437 699.1358146874333 1 0 0
13821 143 2 0 625.4816871730046 557.7098769684133 704.9891779357871 -1 2 0
13819 143 1 0 630.2085279204364 555.4830920543583 705.3458878857678 -1 2 0
13820 143 9 0 626.5839850582678 554.1797669156466 706.0329508042228 -1 2 0
12988 134 15 0 610.331243733742 571.3784119334026 707.2930420931826 -3 2 0
15769 163 14 0 616.0169515315533 566.8493820529626 707.7976964476031 1 0 0
13823 143 6 0 629.2690473470519 562.0527722060074 707.2488379186384 -1 2 0
13822 143 12 0 627.4129168188047 560.7286084595478 704.2892369560277 -1 2 0
15804 163 5 0.75 610.831746392096 551.9133146558888 701.3534898459313 1 0 0
15799 163 12 0 624.2847280784171 549.2355019322493 695.4376426781247 1 0 0
15801 163 15 0 619.3808743965983 552.7540974795432 696.5326459665242 1 0 0
15802 163 2 0 616.5566553464984 552.5295093659446 699.4030951110946 1 0 0
15800 163 18 0 621.3560492609545 549.7354995770761 697.7643006150354 1 0 0
15798 163 17 0 626.709716869878 549.2882190025964 692.8727978091663 1 0 0
15803 163 9 0 612.956923774658 551.6484747211443 698.2194751368592 1 0 0
15797 163 18 0 627.0773911414498 551.1913418781137 689.624463652466 1 0 0
12417 129 1 0 648.7691095938994 566.706015577881 692.7903856132597 0 -1 0
14228 147 2 0 636.6561856970424 553.1874314845577 688.7125847639198 0 2 0
14227 147 1 0 637.3256171293523 554.802411028839 691.8576317395941 0 2 0
14225 147 18 0 642.3084165814914 555.9609032669791 688.3672814557763 0 2 0
14226 147 13 0 640.8416667973098 556.1665252611344 692.0795028034994 0 2 0
15728 163 18 0 649.694404509915 568.1211062231476 699.3362746965155 1 0 0
15727 163 9 0 647.7820432437929 571.1293749763532 698.1767954850852 1 0 0
15726 163 2 0 647.8412242072264 572.7173225469819 694.8323513945318 1 0 0
15738 163 9 0 645.8476147946105 568.353181550044 706.6437373799432 1 0 0
15739 163 2 0 646.3501429860559 570.875965507123 703.5594744100197 1 0 0
15729 163 12 0 648.6346230009442 564.9001767284876 700.8033083511688 1 0 0
12955 134 2 0 631.5217413971505 561.3130455825416 694.4801971695081 -3 2 0
13809 143 18 0 647.5188796261248 561.7201298069511 688.4461355838564 -1 2 0
13810 143 17 0 650.91459835225 560.512581103886 689.7186234742876 -1 2 0
12954 134 12 0 631.6542435142608 560.239638263018 697.6310687907234 -3 2 0
13811 143 2 0 650.1075706554514 557.1173240575099 691.1844459980667 -1 2 0
13812 143 13 0 649.8786826976975 556.3638655796711 694.6358375382541 -1 2 0
15725 163 20 0 644.6376270636139 573.5700613619553 693.013045707171 1 0 0
15723 163 17 0 639.6098416373918 570.3232589569059 695.0211349483495 1 0 0
15724 163 12 0 640.7706704240236 572.8462480220201 692.704432732507 1 0 0
15718 163 18 0 632.4153252670175 570.8480036802245 705.7839063826826 1 0 0
15721 163 12 0 639.7482361790051 567.6997055065173 701.897236968715 1 0 0
15720 163 12 0 638.309338634509 570.0587063868722 704.7524641640974 1 0 0
15715 163 1 0 631.8087005982553 568.8339760632946 696.1295609048158 1 0 0
15722 163 12 0 640.1625737162359 568.3668554363397 698.0248365201527 1 0 0
15740 163 17 0 649.476656133462 573.3322467505127 704.0704889924292 1 0 0
15719 163 10 0 635.8405325179324 571.5114010587384 707.4165678828157 1 0 0
13818 143 2 0 632.5699446935872 555.673856166575 702.0102236896405 -1 2 0
13817 143 9 0 635.9329034331669 554.0180313012886 701.9421279956371 -1 2 0
13816 143 6 0 637.1516933310085 554.69211835904 698.6978419504901 -1 2 0
13814 143 10 0 643.3099209241188 556.906784117198 698.0212382969708 -1 2 0
13815 143 18 0 639.4899494235335 558.1316521529052 698.5479103238189 -1 2 0
13813 143 12 0 646.9441837014805 556.7457491607696 696.6814076703068 -1 2 0
15730 163 18 0 648.3715727161242 562.5874007452011 703.9625167801421 1 0 0
15731 163 9 0 650.9181565538516 559.6057101513591 703.7272502275165 1 0 0
15732 163 2 0 648.0202395574286 557.7401803732038 703.647022953148 1 0 0
15733 163 12 0 644.3675210366453 557.7041269294351 704.9977131108074 1 0 0
15734 163 13 0 643.2239628406089 560.6238358682747 706.669351829322 1 0 0
13921 144 13 0 649.732845951076 549.0849340309225 693.5416853090125 0 0 0
17120 177 12 0 565.5796098320731 590.34749081173 690.7927580634146 1 -1 0
13888 144 9 0 562.9592412019342 576.3518632909341 695.9288916729972 1 0 0
12472 129 17 0 568.5958753389752 596.145712852601 703.7065254301284 1 -1 0
12473 129 12 0 568.8639452789026 596.6765174590812 699.9813057979067 1 -1 0
12475 129 12 0 567.9871425970003 599.9966310358943 694.1261547443816 1 -1 0
17111 177 12 0 565.6892239381939 583.7189859537418 700.3980564324308 1 -1 0
17112 177 10 0 568.297644054918 585.130784334057 697.5531256328217 1 -1 0
17108 177 17 0 557.9475776050008 588.9145475540955 695.2181779584733 1 -1 0
17109 177 2 0 560.7680535249926 587.5495721918462 697.1902545917845 1 -1 0
17113 177 18 0 568.3506875021649 582.0656911667681 695.5464912589114 1 -1 0
17110 177 13 0 561.9982663377862 584.8058127750387 699.6422044842894 1 -1 0
17107 177 18 0 557.6380561094093 592.404071158341 695.3672318117405 1 -1 0
17106 177 1 0 555.6717761911515 595.0123011058769 696.9299434705653 1 -1 0
13886 144 12 0 568.2109552353346 576.0747075700792 691.566805943087 1 0 0
13885 144 18 0 568.3532767013043 578.9596077866414 689.2443022328321 1 0 0
17088 177 18 0 549.764260426453 582.4408964354785 695.8653397325977 1 -1 0
17087 177 12 0 551.0188221930536 585.6669163859654 697.0041025578888 1 -1 0
17105 177 9 0 551.9868960811367 595.5712922313121 695.982268105969 1 -1 0
17086 177 18 0 552.6564535895533 587.5927653155065 700.2305813737139 1 -1 0
17085 177 9 0 553.4973937349747 587.1380523209326 703.8674009807099 1 -1 0
17119 177 2 0 568.5393955963046 588.6716810290922 692.2491180283344 1 -1 0
17084 177 2 0 555.4918093854492 589.3755997307903 706.143433502109 1 -1 0
15745 163 2 0 556.3883874288332 582.527479929097 707.6466170335726 2 0 0
15744 163 20 0 557.1617355718608 580.4272002017206 704.3994307966319 2 0 0
15743 163 12 0 554.6684550582115 579.8279287082081 701.6257860044877 2 0 0
15742 163 12 0 551.6688111455044 577.3870986238267 701.5388139352801 2 0 0
17103 177 2 0 549.4202788483865 591.8627366035549 700.2162483335172 1 -1 0
17104 177 12 0 549.0671026002428 593.4429372560013 696.5369066404155 1 -1 0
12513 129 12 0 584.2205388808022 584.2628418839197 690.6596264673217 1 -1 0
12474 129 4 0 569.5520868174995 599.6801467017234 697.5503192044221 1 -1 0
12471 129 14 0 569.7437006605139 597.8687925183004 706.9024510413434 1 -1 0
17115 177 9 0 575.8203530663347 581.6905437439129 694.3737615519891 1 -1 0
17117 177 1 0 574.26760202118 588.895801219062 696.0038897928112 1 -1 0
17118 177 9 0 570.7818300241165 590.2665191072541 694.9939043824317 1 -1 0
12468 129 12 0 573.289920824518 589.6966361506404 703.604601670444 1 -1 0
17116 177 2 0 574.7153344913806 585.0895734839773 696.0176873726641 1 -1 0
12464 129 12 0 584.3875726114344 597.5817224555447 705.0937489412614 1 -1 0
12463 129 2 0 587.2438490530518 594.7939925777705 706.179343692482 1 -1 0
12465 129 6 0 581.1343007373131 595.47085097043 704.4962818280403 1 -1 0
12467 129 17 0 577.1035439717867 590.8311417437752 703.3587977852504 1 -1 0
12466 129 13 0 580.5816586752884 591.715091064613 704.2848580404634 1 -1 0
17114 177 6 0 572.0849484250434 580.9493841982777 695.4759534473839 1 -1 0
12455 129 12 0 587.6964534697346 576.7309981691966 703.5772577758571 1 -1 0
12456 129 10 0 586.4110928856834 580.1613599069874 703.0259714298264 1 -1 0
12457 129 18 0 583.5610686955233 582.6367250265695 704.2795885933655 1 -1 0
12458 129 6 0 583.4517441296291 583.9564323995942 708.0918226003926 1 -1 0
12469 129 12 0 572.3811890467565 591.1821750370035 707.2729687844954 1 -1 0
12462 129 9 0 589.0125841726739 591.8746420602998 706.0372809829245 1 -1 0
12476 129 15 0 570.6174283325471 598.7444318463 691.5851438311512 1 -1 0
12477 129 15 0 569.4871255266535 595.4670903592412 690.2882186148796 1 -1 0
12450 129 1 0 595.9499099299567 578.728327385698 695.7593983114498 1 -1 0
12449 129 9 0 598.7251786175395 580.8261663934388 693.9799457291717 1 -1 0
12451 129 18 0 596.2954064635985 575.4579670425528 697.5904411222817 1 -1 0
12985 134 17 0 606.5926056831149 578.8398331067126 706.1873466357723 -3 2 0
12984 134 18 0 606.5360502382982 575.5281955124126 703.7967245966419 -3 2 0
12461 129 1 0 590.8953378787709 588.177256177616 705.6063118022214 1 -1 0
12448 129 12 0 597.7754684472452 582.1791406919939 690.4119981013414 1 -1 0
18405 190 12 0 605.7714364279124 596.2335326331238 704.9686573901853 -2 -1 0
18406 190 18 0 606.4037247244478 600.0207876193002 703.6246946143935 -2 -1 0
12937 134 17 0 622.6109458079411 584.8998608103271 694.4944434569886 -3 2 0
12936 134 18 0 623.4171002885586 586.5553188701564 691.0788859287153 -3 2 0
12935 134 1 0 625.8228586444307 588.9890698645403 689.2221175966149 -3 2 0
15758 163 2 0 629.543561875434 576.3606505231592 704.4725000115119 1 0 0
12938 134 2 0 623.9058854082674 581.5552643552137 694.7631258750447 -3 2 0
12940 134 12 0 621.3736244142792 576.7645697848263 693.403109883811 -3 2 0
12939 134 13 0 624.3321713307138 578.3513188479685 692.8439221212141 -3 2 0
16132 167 20 0 613.6357006714951 582.3634811057358 707.7499487651415 0 3 0