LAMMPS data file via write_data, version 8 Apr 2021, timestep = 11390002

6208 atoms
40 atom types
6144 bonds
1 bond types

548.8454457994151 651.1545542005849 xlo xhi
548.8454457994151 651.1545542005849 ylo yhi
548.8454457994151 1265.009204607604 zlo zhi

Masses

1 131.199997
2 57.0499992
3 128.199997
4 101.099998
5 156.199997
6 71.08000180000001
7 115.099998
8 129.100006
9 163.199997
10 99.0699997
11 113.199997
12 128.100006
13 186.199997
14 147.199997
15 87.08000180000001
16 137.100006
17 114.099998
18 97.1200027
19 103.099998
20 113.199997
21 131.199997
22 57.0499992
23 128.199997
24 101.099998
25 156.199997
26 71.08000180000001
27 115.099998
28 129.100006
29 163.199997
30 99.0699997
31 113.199997
32 128.100006
33 186.199997
34 147.199997
35 87.08000180000001
36 137.100006
37 114.099998
38 97.1200027
39 103.099998
40 113.199997

Bond Coeffs # harmonic

1 9.6 3.81

Atoms # full

16426 170 9 0 557.200623958068 570.4476693837545 561.6834753285506 -1 2 0
16427 170 1 0 554.1710907732825 568.6322201425512 562.2009072653195 -1 2 0
16428 170 18 0 554.0502955247092 565.9489492886806 565.1597520356154 -1 2 0
16429 170 17 0 555.5417757758931 562.969614555805 567.0887597667594 -1 2 0
16425 170 12 0 556.5015739404447 573.9730464028833 560.382662168557 -1 2 0
16421 170 12 0 559.961937206313 574.942999560217 566.9848010526035 -1 2 0
16416 170 13 0 552.0251518366191 573.3014102581558 567.6688090101977 -1 2 0
16415 170 12 0 551.5786959947866 575.3931667435879 564.553193618589 -1 2 0
16423 170 20 0 555.9873944413142 579.6999675104468 563.6270284670788 -1 2 0
16424 170 2 0 556.3926380377724 577.7721245018981 560.473717400036 -1 2 0
16422 170 12 0 557.259437948778 577.2005579298288 566.238336332039 -1 2 0
16409 170 18 0 555.4916845602221 582.4094588554359 549.6570516721453 -1 2 0
16410 170 9 0 556.9482570076794 580.2735823097676 552.9059066169914 -1 2 0
16411 170 2 0 554.2450107474515 580.3649674360609 555.005989511716 -1 2 0
16413 170 13 0 549.6173982153649 575.7722862182158 557.0588446609786 -1 2 0
16412 170 12 0 550.9394086554737 579.0721782441109 555.687969861025 -1 2 0
16414 170 2 0 550.7329342726318 576.0754139477718 560.709043811228 -1 2 0
16430 170 2 0 555.4489804736868 565.0196664255965 570.288540275853 -1 2 0
16432 170 12 0 551.5870432874106 566.580678130342 576.37553205029 -1 2 0
16431 170 13 0 553.4282433381725 566.8346884312133 572.9992536018106 -1 2 0
16418 170 2 0 555.6108771878623 571.9961109259273 573.6195956215864 -1 2 0
16417 170 9 0 552.7673287552564 573.2878916643874 571.3203267988399 -1 2 0
16448 170 14 0 554.3772434184308 556.7343390919269 586.9773082230873 -1 2 0
16449 170 17 0 555.617681765438 558.7761162752162 584.3645773342677 -1 2 0
16450 170 12 0 554.9073605320427 557.6650088721635 580.5672806546114 -1 2 0
16447 170 2 0 550.510744253116 557.3876016454664 587.4730295048287 -1 2 0
16433 170 10 0 548.9985165327791 564.9098747281759 578.7405844266074 -1 2 0
16419 170 17 0 558.7774131233658 570.9144789755575 572.2508632025432 -1 2 0
16420 170 6 0 561.059967051121 571.9426050516724 569.0330367605487 -1 2 0
16455 170 6 0 557.9242334583812 549.4799910382973 581.4469875921359 -1 2 0
16452 170 12 0 550.5881814845501 552.4396542174093 578.5144334172934 -1 2 0
16451 170 4 0 553.4907617992852 554.3468217896525 579.3097893715444 -1 2 0
16453 170 15 0 551.9929880073148 549.0115772771719 579.1240336217086 -1 2 0
16440 170 2 0 637.1207127279317 567.2166339740913 575.9239928957877 -2 2 0
16439 170 9 0 636.4224592397043 563.8981858540744 577.5318055108032 -2 2 0
16443 170 13 0 642.8130055835164 566.5177234828681 582.4816723196361 -2 2 0
16435 170 6 0 647.41491142453 558.4891034019274 575.306278772187 -2 2 0
16434 170 18 0 649.452687666215 561.5621119946352 577.4717163442414 -2 2 0
16442 170 6 0 640.3830027368718 567.9024183201053 579.6275448727827 -2 2 0
16444 170 17 0 645.9673844765698 564.6225150786759 582.8477884032494 -2 2 0
16445 170 12 0 648.6688577379138 562.2736817684253 583.5284123340465 -2 2 0
16441 170 12 0 637.5635529678284 569.880463556277 578.681116991134 -2 2 0
16446 170 12 0 650.4307786878065 559.1496086526118 585.4033425531044 -2 2 0
16436 170 9 0 645.162174864131 560.8200078579601 573.1501862654542 -2 2 0
16437 170 2 0 642.0007945482928 562.5212603588483 574.2798960222153 -2 2 0
16438 170 1 0 638.0195285658099 561.6601403395416 574.927444671301 -2 2 0
15994 165 18 0 559.3993911554945 574.8348800674371 643.27075125483 2 0 0
15993 165 12 0 555.7507259317783 573.6601226942167 643.6365187680742 2 0 0
17450 180 15 0 602.1280780869376 570.1352156587751 645.3603716929073 2 3 0
17449 180 18 0 603.2381516642624 566.4742375162383 644.965966340103 2 3 0
17448 180 12 0 606.068858748249 565.2222597417325 647.5447883241978 2 3 0
17447 180 17 0 607.399111825857 562.2365298579828 646.1475191399213 2 3 0
17452 180 9 0 609.1527910598277 570.5151741264581 643.9975528878551 2 3 0
17451 180 2 0 605.4871211332115 570.2278565577382 643.2511716349968 2 3 0
17446 180 18 0 605.726922275809 559.3665445428421 647.3393002326239 2 3 0
17453 180 5 0.75 610.5257369866479 573.448537871348 645.713210769216 2 3 0
17454 180 10 0 613.5767881884178 575.3727907545068 644.9380240874466 2 3 0
17455 180 6 0 616.5712076112899 573.6187852570531 646.140731459199 2 3 0
17365 180 20 0 646.5844784298025 566.9368390885637 646.0478435929826 2 3 0
17366 180 17 0 647.4668574830166 563.1578852808301 646.4821244622157 2 3 0
17367 180 18 0 646.926636642517 559.0660307689744 646.9932740507062 2 3 0
17364 180 1 0 649.3024418112886 568.7003248578033 643.7202206704206 2 3 0
17373 180 12 0 638.4505605733873 550.4467291101699 647.7882366719614 2 3 0
15990 165 11 0 556.4316742249895 578.3410603310174 648.7989026572453 2 0 0
15991 165 18 0 554.3327784923737 579.6718451653434 645.6607902694907 2 0 0
15996 165 2 0 558.6719818548124 581.0587628583254 644.5200506922506 2 0 0
15997 165 9 0 560.974629200873 582.2449978036753 647.4940919273552 2 0 0
15995 165 15 0 559.7282717471409 578.52280120444 642.0328983025789 2 0 0
16003 165 8 -0.75 562.7197605158091 598.8632324561297 646.9832839898243 2 0 0
15992 165 17 0 554.3551793244902 576.8277507798665 643.2530540543032 2 0 0
15989 165 1 0 557.2546313215742 575.1167740865129 650.9237561956434 2 0 0
15988 165 15 0 556.508080689068 572.725605759194 653.9561774498185 2 0 0
15987 165 2 0 555.1244252932064 570.4739951703926 656.3267121177599 2 0 0
15985 165 12 0 555.4244372977861 565.9722059289815 659.2271912022593 2 0 0
15984 165 2 0 552.3959419067011 566.100637442742 661.6500940615999 2 0 0
15982 165 18 0 550.4477627019995 565.7138542064663 668.134098004747 2 0 0
15983 165 12 0 549.9239426970522 565.1545732870328 664.31474284572 2 0 0
15986 165 17 0 555.912146039163 569.8748383897881 660.0728758311488 2 0 0
17443 180 15 0 609.7424769738235 558.6232913822836 657.3553901748829 2 3 0
17444 180 1 0 609.04010231601 556.8358635880626 654.2753633437377 2 3 0
17445 180 11 0 607.4806711305906 557.870673059485 650.6593948754412 2 3 0
16879 175 1 0 608.5238986667852 549.4813485828363 664.7381376822327 3 0 0
17457 180 9 0 615.2562165847072 572.6585340311717 651.8706083948397 2 3 0
17456 180 2 0 616.3339220658553 575.6169214929081 649.3862688749717 2 3 0
17458 180 8 -0.75 618.6396349948604 570.3341584917107 651.5462772210084 2 3 0
17459 180 4 0 620.6185907212902 567.6756752258539 654.1606340362581 2 3 0
17460 180 12 0 622.3922773269715 564.9018278644141 655.4704664846719 2 3 0
17441 180 17 0 616.4550436199978 558.4222852240342 659.953877218358 2 3 0
17442 180 2 0 612.8738079769662 559.1675757259798 659.8155891790472 2 3 0
17437 180 18 0 624.883535985697 562.1622305387142 667.9612429834991 2 3 0
17436 180 18 0 628.4936395067797 561.8900421597511 666.8397131154361 2 3 0
17439 180 2 0 622.0987163523893 562.1351821620395 661.6562367068285 2 3 0
17438 180 12 0 623.1654519698963 563.6671880238781 664.9939237704468 2 3 0
17440 180 12 0 618.9209870801126 560.1245667015222 662.7055748793417 2 3 0
17368 180 10 0 647.3087424326972 557.7211991120436 650.579149874683 2 3 0
17371 180 12 0 638.1878634866209 554.4866819647136 653.4820301185879 2 3 0
17369 180 12 0 644.2229410476189 557.7357828723768 652.7961834362521 2 3 0
17372 180 17 0 637.3051962286964 551.7988322951402 651.1060823773147 2 3 0
17370 180 12 0 642.2516809917419 554.5322596381504 653.7688854077838 2 3 0
17435 180 12 0 631.8995639069036 561.737243435785 665.8304542782574 2 3 0
17433 180 2 0 637.7801782754719 563.5486145232073 664.2541929325155 2 3 0
17434 180 10 0 634.0197465054536 564.6207202117174 664.5245366647069 2 3 0
17426 180 18 0 642.7976695346383 571.7424263735272 653.9091199985564 2 3 0
17425 180 6 0 640.5751337052 572.3787618926219 651.0428898473872 2 3 0
17427 180 13 0 644.0016116985213 569.4680983320275 657.0476946939807 2 3 0
17424 180 15 0 636.6917021920287 572.2296802183688 651.4383346894267 2 3 0
15980 165 12 0 648.6679529249647 560.9349856892127 668.6069224681403 1 0 0
15979 165 10 0 645.4941317936305 558.5249956080546 669.1972866122534 1 0 0
17432 180 9 0 641.2547465295191 562.3133953505536 663.9698405905528 2 3 0
17430 180 18 0 645.425694457399 567.7210127995191 663.6180976715196 2 3 0
17429 180 2 0 646.4445855903416 571.8382572739405 662.7831690498214 2 3 0
17428 180 1 0 646.3746986136765 571.550007844871 659.0891153359294 2 3 0
17431 180 17 0 642.1286546013031 565.8601775229719 662.5799895645785 2 3 0
17419 180 17 0 640.2205577243044 570.9630872706675 664.5006277127743 2 3 0
17421 180 4 0 635.811069973472 574.4938812407335 659.8844492104333 2 3 0
17418 180 14 0 637.3654576910882 569.6809690531808 667.263773822067 2 3 0
17420 180 12 0 637.9652026000576 573.2653623002684 662.3738829670808 2 3 0
17393 180 20 0 636.63752010443 556.1519329890406 668.5813062006868 2 3 0
17408 180 1 0 649.3926563100422 573.822104442522 667.8955496444025 2 3 0
17392 180 12 0 637.9341278878102 553.2993407919256 666.7210739453147 2 3 0
17423 180 15 0 636.7280384793694 575.2090904780138 653.7791360267307 2 3 0
17394 180 2 0 632.7102175737309 556.6391942873447 668.4758292700499 2 3 0
17388 180 2 0 642.3765634696928 549.6411134368803 659.0926394597034 2 3 0
17391 180 12 0 636.4169987497934 549.956934667792 666.5142732804369 2 3 0
17389 180 17 0 638.3060201442461 549.7500660141737 660.2374542257096 2 3 0
15998 165 5 0.75 563.8392219343062 584.0559631524055 649.5401408148441 2 0 0
15999 165 10 0 562.8297346242913 587.6408673030412 650.6174403616269 2 0 0
16000 165 6 0 563.3134604436445 591.2090367562276 652.3428507824024 2 0 0
16001 165 2 0 561.2643489941233 594.1077022465524 651.5995707818495 2 0 0
16002 165 9 0 562.5261452262221 598.1523744186726 650.7936081588641 2 0 0
14842 154 1 0 551.9645042385946 597.04369922547 657.055096587787 0 1 0
14843 154 20 0 550.6670739378714 595.6610467545136 653.7176207855858 0 1 0
14920 154 2 0 607.3716373441022 587.2790901164378 665.2727753968547 -1 1 0
14921 154 15 0 607.7909467759515 589.2595900012481 668.6977751132335 -1 1 0
14908 154 18 0 615.6026460069583 601.3061830509197 654.5287730831527 -1 1 0
14905 154 13 0 622.9389552383929 600.1552996827924 656.6824141185853 -1 1 0
14904 154 18 0 626.5048684830479 600.8344345975497 655.281758030718 -1 1 0
14919 154 17 0 610.7372215916196 588.7262559268206 663.7231928437802 -1 1 0
14915 154 18 0 620.032033519534 587.0185847702592 664.9539388502703 -1 1 0
14917 154 2 0 615.8095426837708 588.2404742111573 663.2058969235563 -1 1 0
14918 154 12 0 612.8746205810647 587.8681997397017 660.995149129503 -1 1 0
14913 154 12 0 620.0387470668591 588.7445053356873 658.8393355908153 -1 1 0
14914 154 18 0 622.622185030836 588.3872830312487 661.9543658990839 -1 1 0
14916 154 12 0 617.0381557454463 587.8089859188259 667.0733961260031 -1 1 0
14906 154 1 0 621.7938044682361 598.3988952445951 653.0516701387069 -1 1 0
14912 154 10 0 622.1700906279704 591.4904506684238 657.2531143300832 -1 1 0
14910 154 9 0 616.068529597927 595.8541113029598 656.4952034559157 -1 1 0
14909 154 17 0 616.1723262320262 599.2758104431948 657.7071007783846 -1 1 0
14911 154 2 0 618.9129348163926 592.9190884223349 655.5534279161467 -1 1 0
14907 154 2 0 618.4422100228841 599.2101852684128 652.5796411295917 -1 1 0
14903 154 6 0 630.416282680159 601.4143457209597 655.6489876558326 -1 1 0
17409 180 9 0 650.4841855782984 576.4087338670719 665.2753651916731 2 3 0
17410 180 2 0 650.4709977701402 578.6530247750488 668.2506115596271 2 3 0
17422 180 12 0 636.7586413443439 576.8405497940055 657.0317447747913 2 3 0
14847 154 12 0 646.7041376775896 591.4898387140444 658.4452922168956 -1 1 0
14846 154 10 0 648.8280547558718 588.2436711174255 657.9762675107679 -1 1 0
14845 154 18 0 650.4469852092734 589.3860492950223 654.6729748142645 -1 1 0
14848 154 12 0 648.650736467517 594.2032216296991 659.5783057990393 -1 1 0
14849 154 12 0 648.6155301263206 597.5088038178179 661.0482933056447 -1 1 0
14844 154 17 0 650.5960608735553 592.9465168840056 653.248281332902 -1 1 0
14850 154 17 0 645.047910197403 598.4895581625705 662.3775799397579 -1 1 0
14851 154 12 0 644.1926359890663 601.627351420109 664.3904117556104 -1 1 0
15981 165 18 0 549.0414600858057 562.8236327347346 670.3382464926153 2 0 0
14949 155 20 0 559.3685898196679 560.5427318771234 685.3682455350616 -2 -1 1
14948 155 12 0 556.8822689566398 558.0520135958262 687.0548685559985 -2 -1 1
14950 155 2 0 559.913905302646 562.7570892864468 688.1274342316384 -2 -1 1
14957 155 12 0 560.5391509278196 550.1051947562692 685.3010008018917 -2 -1 1
14956 155 2 0 562.6778294687101 552.4631906814261 687.3895597145574 -2 -1 1
14958 155 13 0 559.2592677673127 552.6836040449621 682.7829312390577 -2 -1 1
14959 155 2 0 561.538721101184 554.0477452999253 680.0934169389102 -2 -1 1
14961 155 13 0 565.81000328063 558.0251721478285 675.2058522123706 -2 -1 1
14960 155 12 0 563.5367122176854 555.607418796084 677.6106844585942 -2 -1 1
14962 155 9 0 567.4066344931556 561.5257210602514 675.5750848438696 -2 -1 1
16614 172 6 0 550.2060877039766 571.4625159535534 685.9441764863778 1 -1 0
16613 172 17 0 551.5171340016348 568.2847705866574 687.2550286372185 1 -1 0
14963 155 2 0 571.5362307671846 561.7809472795224 675.1337610395568 -2 -1 1
14964 155 17 0 574.4804818470881 564.1554612717583 674.2503033573894 -2 -1 1
14965 155 6 0 576.0572149895913 565.6676156429278 677.5028769487179 -2 -1 1
14966 155 12 0 576.0065699434028 566.1932108858657 681.9576149688161 -2 -1 1
14967 155 12 0 575.1726803698656 565.750132466609 685.764155966735 -2 -1 1
14968 155 20 0 574.8389703567804 563.7770896202194 688.7273774942746 -2 -1 1
14994 155 17 0 582.7222186147455 549.9896626649956 686.8967310730735 -2 -1 1
14993 155 14 0 585.8027265716821 549.1422830686103 684.8061036961823 -2 -1 1
14991 155 12 0 582.6362876483026 550.4615058034016 678.679485057434 -2 -1 1
14995 155 12 0 579.1523709863691 550.1635309787051 688.4341370314288 -2 -1 1
16899 175 2 0 609.8885133083431 551.7286226979169 682.3887192693408 3 0 0
16933 175 14 0 590.7582046868491 563.4652602922623 685.4620730469469 3 0 0
16932 175 2 0 590.1860437372578 559.5993736391697 684.3612318647101 3 0 0
16931 175 12 0 590.3693436613074 555.8244370174507 684.3295381805681 3 0 0
16934 175 17 0 590.9684423338578 561.5359950040512 688.8643260253597 3 0 0
13027 135 12 0 604.2907290492776 556.7085366049307 684.757328879627 -3 4 0
13026 135 12 0 602.300673553253 553.6640414856902 683.626008596698 -3 4 0
13025 135 6 0 598.5695705147498 555.0678915522642 683.2946122387705 -3 4 0
16898 175 13 0 608.5486233895274 549.6507977111626 685.4760558549634 3 0 0
13023 135 2 0 599.613818046865 555.0271419995685 689.2482158391437 -3 4 0
13024 135 17 0 597.8739855463097 557.0634419159732 686.26728231539 -3 4 0
16930 175 12 0 592.0990279712304 555.6948426785533 687.8006158428387 3 0 0
16929 175 17 0 593.5141864215854 551.7727164431363 687.8963173773819 3 0 0
13028 135 20 0 606.9999927536646 557.8483058829636 687.5002835575286 -3 4 0
13029 135 2 0 610.1734369886005 559.159861840227 689.0915537203101 -3 4 0
16928 175 13 0 595.6118136860538 549.4091159482857 686.3394501144128 3 0 0
16897 175 12 0 605.490303566282 550.3007764914556 687.8306744526863 3 0 0
12900 133 4 0 624.8599990782429 552.2558635688812 686.8765343411052 -3 4 0
12899 133 8 -0.75 628.7689417098094 551.426815860677 686.5010632382867 -3 4 0
12901 133 12 0 622.9919999554467 555.4973992849611 686.5716582840421 -3 4 0
17396 180 9 0 629.1808338343354 559.1274544501879 672.6161664760654 2 3 0
17397 180 1 0 628.2397581039937 562.8045062538209 672.7412848306709 2 3 0
14938 154 12 0 619.9976573492825 574.3382389085298 682.6567207015541 -1 1 0
16900 175 12 0 610.2783166157207 551.3207738034774 678.7124603881693 3 0 0
16901 175 13 0 610.3895861987194 549.1091272754289 675.2675532185078 3 0 0
15977 165 9 0 647.2374118988222 550.9638370172769 670.7040526371278 1 0 0
15978 165 2 0 646.5495832062318 555.142078565349 670.5058985389813 1 0 0
17417 180 2 0 639.0547479629578 571.66696540215 670.0616634227736 2 3 0
12897 133 2 0 635.0322417330066 550.4740458998285 683.8856420818101 -3 4 0
17407 180 2 0 649.4661614159417 571.057238427995 670.5035258354948 2 3 0
16612 172 2 0 650.1228984754781 568.2377595101922 688.5447078416154 0 -1 0
16622 172 18 0 636.8201809735824 573.4108328667714 686.2179889656264 0 -1 0
17416 180 12 0 640.7222229827843 575.0036424677663 670.8541089496345 2 3 0
17415 180 12 0 643.935153078194 574.7225128111289 672.1688547483093 2 3 0
17405 180 6 0 648.9805166867596 567.9825770233482 674.9457388804394 2 3 0
17406 180 9 0 647.3435293137105 568.7517478250218 671.8072527776886 2 3 0
17395 180 12 0 632.6197785277396 557.5285882570457 672.0943499079334 2 3 0
17404 180 18 0 647.6888115800525 565.3683002557497 677.7081020087384 2 3 0
16625 172 13 0 638.2391062702111 567.0887980274975 687.7414700742703 0 -1 0
16626 172 12 0 636.0684108926116 565.8522859106326 685.2715431207783 0 -1 0
16627 172 10 0 635.7404101044727 563.9233846887016 681.8427190951521 0 -1 0
17402 180 12 0 641.4218172740206 569.3991432354572 677.8333529817068 2 3 0
17401 180 13 0 638.5450232178893 571.6672068585685 676.6957651566885 2 3 0
17403 180 10 0 644.0599214083487 566.7411160980365 677.3693197855706 2 3 0
17400 180 2 0 636.3368156919153 568.725803777863 675.5815692012989 2 3 0
17398 180 18 0 631.198531761881 565.4474140142681 671.8318705309165 2 3 0
17399 180 17 0 634.3583130847405 566.1970067567783 673.6534207066603 2 3 0
16616 172 12 0 646.7654032168964 575.2182440749201 682.9289899941703 0 -1 0
16628 172 18 0 636.3491320546199 560.8866247379252 678.910136916159 0 -1 0
16629 172 6 0 636.9384701090671 557.7891023553759 679.5981242446911 0 -1 0
16615 172 12 0 649.8300517482111 573.1011738362696 683.6219482551242 0 -1 0
16630 172 9 0 637.7636787376902 556.2930312197118 683.1621007999772 0 -1 0
16631 172 2 0 634.2678343765766 557.3793068302281 685.2418564748853 0 -1 0
15033 155 8 -0.75 644.5690261232098 549.0057822888767 677.5264816866696 -3 -1 1
15035 155 12 0 647.4045544097328 554.9253170288795 676.6754086279974 -3 -1 1
12898 133 9 0 631.0251351173205 550.4494182510574 683.8353358698203 -3 4 0
15034 155 4 0 644.1086558867088 552.8516944768991 676.5765130340864 -3 -1 1
16632 172 1 0 631.4371952453088 558.8852262834545 687.4760326264138 0 -1 0
12895 133 10 0 637.41235566175 549.6572884611583 689.3680260814282 -3 4 0
12896 133 6 0 638.4486944817207 549.5527684738132 685.3813987011234 -3 4 0
17411 180 12 0 550.8311818837201 580.4387530865104 670.0933786504249 3 3 0
16594 172 12 0 560.7737515545734 580.7628271602327 684.8140137495488 1 -1 0
16595 172 12 0 557.489513130338 582.3815769761353 686.1442471271922 1 -1 0
16596 172 17 0 553.929667645009 582.2412535253482 684.9139088574153 1 -1 0
16597 172 12 0 551.8471838772426 585.725357645216 685.002242708811 1 -1 0
17412 180 6 0 549.8823689390545 579.0120145889026 673.3442761854847 3 3 0
16598 172 20 0 549.1483029035512 588.2096770388516 683.3538234419298 1 -1 0
16592 172 10 0 567.0583467927538 577.6470627513944 684.9186064330377 1 -1 0
16593 172 12 0 564.0052460369467 579.706343811149 684.159402278224 1 -1 0
16591 172 18 0 569.3365961923142 578.2615667060838 687.9119862318673 1 -1 0
16590 172 17 0 573.4267642079858 577.9673093010196 686.9355467051523 1 -1 0
16589 172 20 0 576.3296806315965 579.6166827479553 689.2063303968384 1 -1 0
14930 154 9 0 595.222177270977 578.1228069088957 685.034260819269 -1 1 0
14927 154 18 0 595.3857372891359 586.1400536884735 684.1652108940816 -1 1 0
14928 154 15 0 597.2730525199398 585.1745927538633 687.5153699678917 -1 1 0
14929 154 2 0 595.2266007514952 581.6998599287193 686.443642123616 -1 1 0
14931 154 5 0.75 598.4712108758374 575.7202033783182 684.738618536441 -1 1 0
14932 154 10 0 600.3296401523432 576.0377454312184 681.3242012334213 -1 1 0
14926 154 12 0 596.1625706133676 588.4280335385519 680.9384422095081 -1 1 0
14934 154 2 0 606.9279627221896 575.9893318646933 677.4368156226118 -1 1 0
14933 154 6 0 603.3445890485426 576.5931205790331 679.2510731911284 -1 1 0
14925 154 17 0 598.7678284254866 590.2418420909239 679.1465886967244 -1 1 0
14924 154 18 0 602.320983269309 589.5248930655532 677.3849903597588 -1 1 0
14923 154 11 0 603.5364071930632 587.5052481013964 674.4711279006797 -1 1 0
14922 154 1 0 604.8427217188278 589.2036195482017 671.323658591509 -1 1 0
14935 154 9 0 609.6336996784997 576.868134729857 680.0808019706388 -1 1 0
14937 154 4 0 617.0133972510608 575.9837858074404 681.7809381381813 -1 1 0
14936 154 8 -0.75 612.9187749293465 576.635746336962 681.980126750162 -1 1 0
16621 172 1 0 636.7613870210402 576.3799578382935 683.8611371126437 0 -1 0
16620 172 9 0 636.5744227480577 579.9213182166021 683.8149599018807 0 -1 0
17414 180 17 0 646.980589957301 576.0520825107626 674.7887930603598 2 3 0
17413 180 13 0 650.3198836291168 575.9769853128291 675.5427014001158 2 3 0
16618 172 2 0 641.7653000925482 580.057781718072 683.3015775866941 0 -1 0
16619 172 12 0 639.0571283330113 581.770289650024 681.2893756209496 0 -1 0
16617 172 20 0 643.6428051998244 576.7538564803478 684.2870381663042 0 -1 0
16599 172 2 0 647.9348960758898 588.084440525213 683.8076825898977 0 -1 0
16600 172 9 0 645.4656403374647 587.1792366124048 686.4951969983797 0 -1 0
14947 155 17 0 556.1662859476157 555.6585837223857 690.2677967986665 -2 -1 1
14954 155 18 0 562.1083416642433 557.9464784420019 690.6141204012756 -2 -1 1
14955 155 9 0 563.9085147469831 554.8382982581828 690.3422184554119 -2 -1 1
14946 155 12 0 557.5161952336916 554.7020568863624 693.7340080221894 -2 -1 1
14945 155 12 0 557.1839224651399 557.1029248597688 696.7774283053606 -2 -1 1
14953 155 12 0 562.654937111359 560.80903978512 692.9385654138833 -2 -1 1
14951 155 9 0 557.5048712132344 564.1749389617511 690.6178079986344 -2 -1 1
14952 155 18 0 560.4477946581804 564.0325878479753 693.2361119484724 -2 -1 1
14941 155 17 0 556.0164885945308 565.3546430547744 704.5669360773675 -2 -1 1
14940 155 20 0 554.5819808229451 568.8993579756974 705.2408236533571 -2 -1 1
14939 155 1 0 557.3265908342163 571.4635925800465 706.2775640897057 -2 -1 1
14943 155 10 0 558.003583031419 559.8210984260463 702.1763064256328 -2 -1 1
14944 155 12 0 557.4083415243248 560.5527715898501 698.3998416583573 -2 -1 1
14942 155 18 0 557.4610329417849 562.1287692919037 705.1757852962196 -2 -1 1
15766 163 12 0 551.9575749999109 557.3779027272826 701.0619448149877 -1 1 0
15765 163 17 0 554.5158363802062 555.5465856540205 703.4287248088065 -1 1 0
15764 163 13 0 556.1159414965299 554.4741980354312 706.5598592960094 -1 1 0
16608 172 2 0 551.705832640452 575.1479583140375 694.5008855976079 1 -1 0
14028 145 15 0 563.7871045647001 555.8638358836304 708.6037268106243 -2 -1 0
14029 145 15 0 567.4403288344018 554.4604951545404 707.6787522999001 -2 -1 0
15760 163 9 0 558.478740391166 550.2981664249264 699.4956946711224 -1 1 0
15761 163 2 0 560.3438146147772 550.0189549179963 702.800015924062 -1 1 0
15763 163 6 0 558.1940823310842 551.1770169209103 707.0571973021356 -1 1 0
14969 155 2 0 577.5841989776642 564.1690984304092 691.5669701653043 -2 -1 1
14970 155 12 0 579.7346418707305 565.6603555276627 693.7936537435285 -2 -1 1
14971 155 9 0 582.1593530810602 564.3018504766162 697.0693352890012 -2 -1 1
14977 155 12 0 586.8079809491855 554.5734393376646 692.6344420237431 -2 -1 1
14976 155 13 0 588.2421167794898 557.5420250360494 694.3277574028263 -2 -1 1
14973 155 18 0 587.8697434634001 562.1863597999945 701.0479470799519 -2 -1 1
14972 155 1 0 584.0364122425657 562.0016683791437 699.718406713594 -2 -1 1
14034 145 2 0 576.2523110574554 564.2871145692824 709.4216159194684 -2 -1 0
12910 134 17 0 587.8519929651692 570.5604827076045 709.6193842958002 0 -5 0
16952 175 18 0 587.9604538243958 551.4295770671831 707.2005211139293 3 0 0
14978 155 10 0 585.2638363803735 552.1761992993397 695.0625279699539 -2 -1 1
13067 135 9 0 593.2329664527903 551.5586180734027 697.2420182470822 -3 4 0
16935 175 12 0 594.4619341626683 561.2542416726567 690.3305985331386 3 0 0
16937 175 12 0 598.0528702522946 567.0323706409107 689.5955070450586 3 0 0
13064 135 2 0 600.7649666571446 551.4511107601334 693.4933209512893 -3 4 0
16936 175 4 0 597.5056633761756 563.1731728716072 689.6811991758042 3 0 0
15789 163 12 0 608.8401785703858 563.5175253408878 702.0085128070908 -2 1 0
15788 163 18 0 608.986329582044 562.3753458294851 706.0753048308104 -2 1 0
13072 135 18 0 592.566028463966 556.0620770010263 709.6567503312588 -3 4 0
14975 155 2 0 590.4363490509762 560.1125811374502 695.3565152493767 -2 -1 1
14974 155 17 0 590.9107256031766 561.6312268507832 698.8299930176261 -2 -1 1
13018 135 13 0 598.2065677342839 564.0293415071656 703.721892578452 -3 4 0
13019 135 2 0 598.0025471555084 562.5704081943428 700.0934841517501 -3 4 0
13020 135 12 0 596.6495952021077 560.175885691669 697.599238395659 -3 4 0
13021 135 13 0 598.7374934655528 558.2638935350785 694.6763447317999 -3 4 0
13022 135 9 0 601.262914957044 557.4625967970059 691.9951754725948 -3 4 0
13016 135 2 0 598.127507542861 570.875004395041 702.0474136354433 -3 4 0
13015 135 9 0 601.2953954423564 572.6156891993293 702.9013082949913 -3 4 0
13017 135 12 0 596.5259891769645 567.5067184784153 702.7271041563209 -3 4 0
16943 175 1 0 608.8399882305806 556.6243204965076 699.5212878437292 3 0 0
16938 175 15 0 597.3614165470191 567.4079214296103 693.2996988121026 3 0 0
16941 175 18 0 604.1449259000933 561.0397518142854 696.255075874919 3 0 0
16939 175 15 0 599.0290873710421 565.2301393642902 695.5166019935273 3 0 0
16940 175 6 0 602.6856833445775 564.2058234169959 694.8072639220771 3 0 0
16942 175 13 0 605.2280431188535 557.4754732878741 697.9707245637414 3 0 0
16944 175 2 0 607.5648263886311 555.2450515628113 702.9858887040959 3 0 0
12908 134 12 0 590.7429707374044 567.8963247417206 705.1604761055444 0 -5 0
12909 134 12 0 591.0409303242466 569.3205289756319 708.9197252167032 0 -5 0
13071 135 18 0 594.7351819723675 556.8947259905983 706.7662279711253 -3 4 0
15791 163 12 0 608.7609779179885 566.9495152366457 696.2347646928064 -2 1 0
15790 163 2 0 607.3699302502156 564.4027465398427 698.829233138683 -2 1 0
15787 163 18 0 608.3154269235722 558.2924870818498 706.5195089553756 -2 1 0
12907 134 12 0 589.7925875002179 571.169505026295 703.3468915441656 0 -5 0
12906 134 10 0 591.6213066842362 571.4162413154038 699.9001580998338 0 -5 0
12905 134 18 0 593.1971610608603 574.5069397435437 698.5881348497277 0 -5 0
13014 135 18 0 604.8490981609118 572.126704823918 702.3732480014721 -3 4 0
13012 135 18 0 606.588472901 573.7879140574015 707.7914102073413 -3 4 0
13013 135 12 0 607.9071763988281 573.1772307027144 704.1567539959085 -3 4 0
13070 135 12 0 597.2328747386025 554.175601533209 704.953629497728 -3 4 0
13065 135 18 0 597.067935391662 551.070366462115 692.3160840039923 -3 4 0
13068 135 2 0 594.5483939045716 554.3589945790981 699.112950143991 -3 4 0
13063 135 1 0 603.483375055565 551.2158446027561 696.2017088678052 -3 4 0
16946 175 17 0 602.5017361885044 551.2256083181039 705.9064216394283 3 0 0
16945 175 18 0 605.3805821381548 553.5515467124662 705.4639409414925 3 0 0
13069 135 10 0 598.1065990005918 554.3535699752988 701.2458782643687 -3 4 0
13066 135 17 0 594.8947102353296 548.863558559301 694.5562271316056 -3 4 0
16950 175 12 0 593.2898024687263 549.5175871082212 707.1589187979382 3 0 0
13030 135 12 0 612.1758753785242 557.9484608806066 692.0159843797774 -3 4 0
13031 135 9 0 611.770609048304 554.2353819977509 693.2447101220906 -3 4 0
13033 135 18 0 617.6771997876917 555.301125003465 694.9165984556005 -3 4 0
13032 135 1 0 614.1750247878508 554.4169177670161 696.7302921767284 -3 4 0
13034 135 17 0 618.3927103113672 559.0969410197714 694.3788414745168 -3 4 0
13035 135 2 0 617.4771784759251 562.5908391732011 695.2091154682385 -3 4 0
13037 135 12 0 621.8368786812878 564.2436131766799 698.8515080152383 -3 4 0
13039 135 18 0 623.1920056394976 563.3928942590145 704.9374742581564 -3 4 0
13038 135 10 0 624.4400290321651 564.5775146543144 701.6944137200793 -3 4 0
13036 135 13 0 619.8151740412669 565.4941120612433 696.2557467091708 -3 4 0
13040 135 6 0 622.4808441572661 563.4193194274297 708.8827085863264 -3 4 0
13048 135 13 0 624.6590284138697 557.0206129828857 701.733576949829 -3 4 0
13049 135 17 0 622.9754188004822 556.8458400640578 698.556251172317 -3 4 0
13050 135 12 0 623.2400201231382 552.8418411068295 697.1363908088927 -3 4 0
15792 163 17 0 612.4911167368585 567.4358864156029 694.9529093431593 -2 1 0
13051 135 12 0 623.451524791429 550.3780722910114 700.2325919435112 -3 4 0
16633 172 9 0 630.2759716187546 557.9153965485247 691.1137004774589 0 -1 0
15794 163 15 0 617.3854355752235 565.623560681376 689.9549462270254 -2 1 0
15793 163 2 0 614.5515528496338 567.8047683191309 691.699280208987 -2 1 0
15786 163 12 0 611.6017900368602 556.5346872575049 706.023661208014 -2 1 0
15785 163 10 0 614.5538552074872 558.5534593552778 705.691554003382 -2 1 0
15784 163 2 0 616.7854984625093 561.6169476371585 704.2609088969577 -2 1 0
15783 163 9 0 615.4306848486765 565.31227940316 703.8210767730421 -2 1 0
15780 163 2 0 622.9002224096594 572.8348792791234 703.9404274270162 -2 1 0
15781 163 18 0 621.2708023895311 569.7626565565213 702.2582134469485 -2 1 0