LAMMPS data file via write_data, version 8 Apr 2021, timestep = 11390002

6208 atoms
40 atom types
6144 bonds
1 bond types

548.8454457994151 651.1545542005849 xlo xhi
548.8454457994151 651.1545542005849 ylo yhi
548.8454457994151 1265.009204607604 zlo zhi

Masses

1 131.199997
2 57.0499992
3 128.199997
4 101.099998
5 156.199997
6 71.08000180000001
7 115.099998
8 129.100006
9 163.199997
10 99.0699997
11 113.199997
12 128.100006
13 186.199997
14 147.199997
15 87.08000180000001
16 137.100006
17 114.099998
18 97.1200027
19 103.099998
20 113.199997
21 131.199997
22 57.0499992
23 128.199997
24 101.099998
25 156.199997
26 71.08000180000001
27 115.099998
28 129.100006
29 163.199997
30 99.0699997
31 113.199997
32 128.100006
33 186.199997
34 147.199997
35 87.08000180000001
36 137.100006
37 114.099998
38 97.1200027
39 103.099998
40 113.199997

Bond Coeffs # harmonic

1 9.6 3.81

Atoms # full

18455 191 2 0 552.3939177498113 564.790859841517 561.4180926278295 1 1 1
18454 191 9 0 549.4821475364131 565.8930391873726 563.7497982482754 1 1 1
18452 191 12 0 549.8682573123805 561.1447227656337 567.3629940243474 1 1 1
18456 191 17 0 551.6836907642485 561.4849123750131 559.4700026187263 1 1 1
18433 191 17 0 562.3234046654476 569.152074964479 567.8876902825363 1 1 1
18446 191 18 0 551.1856524204242 549.9515010563392 565.2408596203487 1 1 1
18447 191 9 0 552.5974248210273 553.281024918374 563.6250524364253 1 1 1
16878 174 12 0 556.2102721898667 555.3038808633703 555.8751456286516 -1 3 0
16877 174 4 0 554.2754245307963 551.7711495816918 556.8222282546224 -1 3 0
18457 191 6 0 549.9861426049001 563.3773256589049 556.8285624189893 1 1 1
18448 191 2 0 549.9822566971399 556.1245048454032 564.2309740909969 1 1 1
18445 191 12 0 549.9492633902138 549.31059953753 568.3789169551561 1 1 1
16837 174 17 0 571.1010923925381 553.790588635814 566.9083290381571 -1 3 0
16838 174 12 0 573.4972320093287 556.8538545523477 568.5333190420163 -1 3 0
15191 157 12 0 600.4498816059843 564.0971635944173 561.3332374112848 0 -2 0
15192 157 15 0 598.720140547444 561.3017288335545 563.2569992821853 0 -2 0
15189 157 12 0 601.7782786274137 566.7487352534994 566.4629567008574 0 -2 0
15194 157 6 0 603.3496068796103 559.5064956092243 565.6865834169571 0 -2 0
15195 157 18 0 605.3416797468674 558.2258631328815 568.3523922846636 0 -2 0
15190 157 4 0 600.8144976079234 567.2552190504514 562.7725907994851 0 -2 0
15193 157 15 0 600.022671770856 559.9427323487145 566.4508789654557 0 -2 0
15188 157 17 0 604.7648868986138 564.5816622260039 567.9059219264149 0 -2 0
15165 157 9 0 624.0224706386747 561.6695727046235 559.8678880162037 0 -2 0
15164 157 12 0 622.1865026793107 563.6945385264534 557.205738659045 0 -2 0
15163 157 2 0 619.3594007944429 565.1788954873575 559.5537678761757 0 -2 0
15161 157 12 0 615.2147871247504 562.1880861275928 565.122915526167 0 -2 0
15162 157 20 0 616.8282419518388 565.057439247457 562.5777438014071 0 -2 0
15160 157 12 0 613.9174259192988 559.6958330466529 567.7550430183801 0 -2 0
15166 157 1 0 623.1981806441413 560.3544347827758 563.1452846671122 0 -2 0
15167 157 18 0 623.9142996724121 563.0557593108961 566.4584255675884 0 -2 0
15168 157 17 0 621.0897325545141 564.8449383343714 568.5460945068169 0 -2 0
18453 191 13 0 649.8963674492011 563.1320195730354 565.5995160800834 0 1 1
18479 191 6 0 648.8102493539687 549.6878484816301 551.7010326226487 0 1 1
18449 191 12 0 649.0078260396454 556.0726186632071 566.3111784608882 0 1 1
18482 191 12 0 649.3211535058209 556.3355387379978 559.1648217563879 0 1 1
18481 191 17 0 649.2520479461818 552.722711207613 557.8300692188711 0 1 1
18480 191 13 0 647.1789092222896 552.0368544859846 554.4996637981151 0 1 1
18485 191 14 0 643.9057901980863 559.91927585471 566.0675682815134 0 1 1
18484 191 2 0 644.7832218210067 557.7379029266377 563.1142594686228 0 1 1
18487 191 12 0 643.1781747454758 553.2170066059726 567.2362462075735 0 1 1
18486 191 17 0 641.5839235020325 556.8032264785694 566.8205837676713 0 1 1
18483 191 12 0 646.1578298722741 558.4722891952849 559.6034310005477 0 1 1
18460 191 20 0 643.8252686900967 562.486605358555 552.6510989745346 0 1 1
18459 191 12 0 645.2227664631653 564.7121402724499 555.023153390211 0 1 1
18458 191 12 0 648.6262945057745 564.8310234158834 557.3187368570674 0 1 1
18461 191 2 0 641.5897440713445 559.7578508509544 551.8445352547926 0 1 1
18462 191 12 0 639.2709624423758 558.0940011962983 549.0984928149124 0 1 1
18431 191 1 0 557.6630770693588 570.3332084273293 564.240104305356 1 1 1
18432 191 20 0 558.6119048119839 569.9803427590072 567.9095262291951 1 1 1
16819 174 13 0 551.8916164181701 574.2556279264027 568.27107243533 -1 3 0
14093 146 12 0 585.1028193050781 583.1885210187022 557.3801369139314 2 3 0
14092 146 6 0 587.920445951545 580.984975855306 557.932033367993 2 3 0
13190 136 8 -0.75 587.9942548215449 585.3393504568854 567.5475267245245 -3 -1 1
13189 136 9 0 585.7560643159615 587.9748712401719 566.9312838688428 -3 -1 1
14095 146 20 0 587.553143586443 584.6236283105101 552.1909974946149 2 3 0
14094 146 12 0 585.858728980879 586.2294401929134 554.8968611636476 2 3 0
14096 146 2 0 586.3700867668434 581.782087416948 549.1801447844512 2 3 0
14091 146 17 0 590.6722749375449 578.2533447002531 557.49664910945 2 3 0
14090 146 2 0 592.600110075129 581.8919112591736 557.0973940356038 2 3 0
14076 146 20 0 606.7643509283681 577.9158444096171 558.2785187780003 2 3 0
14069 146 18 0 607.5663375622569 579.4688287287403 567.4383001318828 2 3 0
14073 146 12 0 606.3333518847737 571.1705851475617 566.6119710669062 2 3 0
14074 146 17 0 605.0258926243589 572.1312106798905 563.2517427849701 2 3 0
14077 146 2 0 603.367936091687 577.0611288177 556.7846570314404 2 3 0
14075 146 12 0 606.0948118679572 574.8772008817477 560.6016249196892 2 3 0
14078 146 9 0 601.2380857895732 579.5925627412984 555.0422100965756 2 3 0
14089 146 9 0 593.9552652132367 585.6492686171114 557.2350006009398 2 3 0
14079 146 18 0 603.492370930555 582.6435853926635 554.6108288410285 2 3 0
14088 146 13 0 593.0301547182866 588.4903979867274 555.0094241394498 2 3 0
13191 136 4 0 591.3851027738759 584.2547648134941 566.5533124145753 -3 -1 1
14080 146 12 0 603.3467837633674 585.6221304840163 553.127965342436 2 3 0
14081 146 18 0 606.5060653077766 585.5519583796813 551.1477943014811 2 3 0
16129 167 6 0 592.938582717624 588.5230749983148 564.4750967562759 6 1 1
16130 167 12 0 596.4504532735828 588.9564796597598 563.1392624073972 6 1 1
14068 146 17 0 609.162561763439 576.269654856682 566.5994863655076 2 3 0
14086 146 2 0 595.1772624182267 588.5049578450814 549.4913482342128 2 3 0
14067 146 20 0 612.5125914457262 577.1535005974863 565.1382037595367 2 3 0
14066 146 1 0 611.8845207247566 579.3714021197289 561.8819076651624 2 3 0
16176 167 18 0 569.2261390390727 609.1112243358045 552.2741141203528 6 1 1
16169 167 18 0 567.9115549209702 608.28891012668 566.1892336891674 6 1 1
16168 167 2 0 567.8906965385476 604.4270793763455 566.9125731025895 6 1 1
18340 190 12 0 559.4528985991434 609.6052909041317 553.9104122423836 -1 0 0
18511 191 1 0 552.2830557174972 604.8924866075516 564.429411664016 1 0 1
18512 191 11 0 548.9714054094707 604.9549442186595 565.7472616885927 1 0 1
18510 191 15 0 550.5794073680958 607.345295100144 562.1253702921272 1 0 1
18342 190 17 0 552.8638347344082 609.1902996612458 551.3044943326379 -1 0 0
18341 190 12 0 556.4744837478695 607.5336795354474 552.5420472486489 -1 0 0
13188 136 2 0 583.3484927105312 590.7272880225529 564.9823619723269 -3 -1 1
13187 136 6 0 581.5506617610666 593.9745898090896 565.59953279938 -3 -1 1
16177 167 12 0 570.5837750852065 605.5408446732994 550.7389602885587 6 1 1
14087 146 12 0 592.6839120421007 590.3311410590894 551.5169000820625 2 3 0
16134 167 12 0 605.2360004286566 594.7080506962528 569.098504679568 6 1 1
16133 167 2 0 605.329740467099 591.3767160495412 567.3153173885082 6 1 1
16131 167 12 0 598.2414007278046 591.5644034056561 564.8709363075508 6 1 1
16132 167 20 0 601.6212176311029 590.4330563829278 566.5682545732326 6 1 1
16128 167 17 0 590.5522653831217 591.616892376334 564.7851400669184 6 1 1
16127 167 2 0 592.1318274981111 595.0291384835809 565.8329665189967 6 1 1
16135 167 9 0 606.8781517451816 597.1549378788152 567.1305529325762 6 1 1
16125 167 13 0 597.8861113779084 597.1838517760232 569.090119076912 6 1 1
16126 167 9 0 594.1947143978001 597.4618083691815 567.707306572488 6 1 1
16136 167 1 0 610.4267184431568 597.7415114542107 568.540787405722 6 1 1
16142 167 10 0 619.8973475354945 609.8167930813754 567.0608961323055 6 1 1
18519 191 9 0 637.8441711611948 605.0665510196125 564.9220296188491 0 0 1
18350 190 9 0 645.0914268651869 606.9077405591063 564.8113841159258 -2 0 0
18351 190 2 0 644.0456571464908 603.3375104902817 563.5483591436013 -2 0 0
18352 190 12 0 643.1983210752732 600.3966544779264 566.4895094856349 -2 0 0
18520 191 5 0.75 638.6545703147679 602.1799756662729 562.1907629708522 0 0 1
18521 191 10 0 638.8444424492232 602.1749235422504 558.0605104364955 0 0 1
18523 191 2 0 639.6307591055712 595.6585519367859 558.7613935786319 0 0 1
18526 191 4 0 646.2589050893394 595.208271938237 555.3360097701201 0 0 1
18525 191 8 -0.75 646.1014308669771 596.9119922985775 558.4314565470602 0 0 1
18524 191 9 0 643.166265317883 596.2349944750748 560.8696323563539 0 0 1
18349 190 18 0 644.6601757504956 607.5398491174834 560.7659173828429 -2 0 0
18522 191 6 0 638.5769283666297 598.5555631377255 557.2471616607729 0 0 1
18348 190 12 0 642.6445553696684 608.7968297505548 558.3151305190187 -2 0 0
18513 191 18 0 649.4987448726184 605.9117152872634 568.9452243471536 0 0 1
18345 190 2 0 645.2587158718172 609.9940303320245 552.0557451411138 -2 0 0
18518 191 2 0 639.7750153407634 605.5394145205196 568.0341622146859 0 0 1
18527 191 12 0 642.9810906443037 593.2190619877879 553.5449862782762 0 0 1
18344 190 20 0 648.4058726467821 609.8647167040302 550.3820767954662 -2 0 0
16175 167 18 0 565.429200995986 610.6250690305992 552.3555712402872 6 1 1
16172 167 2 0 567.0921980142763 614.4768751017957 560.9541082213877 6 1 1
16173 167 10 0 565.1771224586413 612.3589338348053 558.1194260007288 6 1 1
16174 167 12 0 566.025447691094 613.9026069982359 554.7331286137058 6 1 1
16170 167 17 0 565.9364725447377 611.1448713242858 567.6147350389111 6 1 1
16171 167 9 0 565.4972676849472 613.6652178208822 564.4781213672118 6 1 1
18335 190 20 0 550.9036228449223 619.8904496158266 552.2215530264864 -1 0 0
18339 190 12 0 558.4348980608959 612.5337479842368 556.203912617119 -1 0 0
18336 190 17 0 554.3600742886554 620.6736816773956 551.1544134039882 -1 0 0
18338 190 10 0 558.8594005696762 615.9579843693875 555.7038905177532 -1 0 0
18337 190 18 0 556.7244734006268 618.7585742243901 554.0048944111543 -1 0 0
18509 191 2 0 549.6162762695212 611.0365674726554 562.770099661278 1 0 1
18343 190 12 0 549.5396692942803 611.058009944418 551.4231949463674 -1 0 0
18334 190 1 0 550.3512851909516 616.8981844271688 554.5938108980006 -1 0 0
16161 167 12 0 579.5615246452106 613.711666463504 567.8125355054161 6 1 1
16162 167 15 0 576.3209401608902 611.6644570855511 567.5265031147414 6 1 1
14148 146 18 0 619.0259540797573 619.3366353611729 549.4556961501438 2 3 0
14159 146 9 0 629.5946673405078 625.9310064480019 550.4073091349388 2 3 0
16143 167 18 0 620.1603890190999 612.8620021813065 564.49213490963 6 1 1
16144 167 6 0 618.3154829454062 614.6618215328245 567.4904544898211 6 1 1
14147 146 11 0 622.3237072952543 618.2527721703937 550.6081032716776 2 3 0
14146 146 1 0 625.0215763711495 615.8828574942647 551.2399004114119 2 3 0
14145 146 15 0 625.3033883163957 612.421903152215 549.6121356306703 2 3 0
18346 190 9 0 641.7395693964444 611.4161373088658 552.0999988460989 -2 0 0
18347 190 18 0 642.4520581456695 611.5585679490297 556.1225330090485 -2 0 0
15219 157 15 0 637.3816605494924 628.0928512734685 566.9927851225033 0 -3 0
18505 191 12 0 649.9698157798554 623.5285688170811 558.2400811322523 0 0 1
18508 191 17 0 649.9940112030472 614.3619977209847 563.8959716626138 0 0 1
18507 191 12 0 648.8844555241016 617.4781052236367 562.7566570280378 0 0 1
18504 191 18 0 647.3885865187151 622.9028270146348 555.3859040649613 0 0 1
18503 191 18 0 645.6232134034532 625.6316719589543 553.9720211187782 0 0 1
18506 191 2 0 649.73422237091 620.2306993183412 560.8653677702497 0 0 1
15217 157 12 0 636.975820889598 629.489018808514 561.7814098856796 0 -3 0
15218 157 18 0 638.8098308836127 626.5447596059167 563.8374940299972 0 -3 0
18502 191 12 0 646.8717654156147 627.387461885692 551.3338299573196 0 0 1
18501 191 10 0 649.4139919867946 630.5999283239785 550.3831664876243 0 0 1
14158 146 2 0 631.714309488999 622.8139399039773 550.1890696114124 2 3 0
16867 174 18 0 561.881722195471 632.8325453639516 555.3042914939422 -1 2 0
16868 174 15 0 563.5898312625674 631.5126180704444 558.3896251725511 -1 2 0
16869 174 2 0 563.3572576626777 634.2120460290046 561.0913032705075 -1 2 0
16862 174 1 0 567.4031698330717 640.2270600538541 554.1937814602665 -1 2 0
16861 174 15 0 567.2138406724489 638.787467277677 557.3168419033296 -1 2 0
16875 174 9 0 559.4660479591375 648.8113664483792 554.7888509448426 -1 2 0
16874 174 2 0 557.6638219137069 645.3599023769996 555.0767234437996 -1 2 0
16876 174 8 -0.75 556.8733720037962 651.0241437098002 556.6188798596737 -1 2 0
16873 174 6 0 555.9260759329361 643.2550824076523 556.947377441022 -1 2 0
16872 174 10 0 556.2979222301119 641.1183697814974 559.7285316087384 -1 2 0
16871 174 5 0.75 558.4429077082962 637.6507334160694 560.1181428873283 -1 2 0
16870 174 9 0 561.528986220084 637.2428007589837 561.7152188397218 -1 2 0
16863 174 11 0 564.8293231295551 642.7349841000694 554.1454076427391 -1 2 0
18496 191 2 0 550.3968746418496 636.4636171546937 560.5783025417843 1 0 1
18497 191 18 0 551.7390467296387 637.8833488562499 557.4164509675106 1 0 1
18495 191 1 0 548.9700334154365 639.1916278802756 563.052341751884 1 0 1
18498 191 17 0 553.0881783240224 636.0185265064438 554.6955662820399 1 0 1
18499 191 9 0 551.6208311865322 635.03435317692 551.2837598549834 1 0 1
18500 191 2 0 549.2097400489274 632.5488979654396 552.8598824164625 1 0 1
16864 174 18 0 561.3356124755733 640.803817965986 553.9018483356514 -1 2 0
16866 174 12 0 561.9466087644425 635.0993893615397 552.2215946586906 -1 2 0
16865 174 17 0 560.8793092104496 638.4227381884934 550.7547596490696 -1 2 0
16858 174 12 0 575.7570681721838 634.0830084270281 561.1300209590469 -1 2 0
16859 174 17 0 573.4875104355923 635.1370924584668 558.1426006117426 -1 2 0
16860 174 2 0 569.4935256783874 635.7597843552538 558.1718353662028 -1 2 0
16857 174 2 0 573.1754635918095 632.2393891793754 562.8503618225284 -1 2 0
16856 174 12 0 573.3259428063311 631.0704160525767 566.4755161202364 -1 2 0
16848 174 18 0 571.015821569194 645.785525970839 565.750805006779 -1 2 0
16847 174 2 0 573.1185150088805 647.5192995358423 563.6833937465065 -1 2 0
16846 174 1 0 576.7319454350773 646.572016911915 562.6009332927556 -1 2 0
16844 174 18 0 576.8634851692823 649.5783724817185 567.6581495239845 -1 2 0
16845 174 13 0 579.2006352471669 647.5691277522162 565.5015319000295 -1 2 0
15204 157 12 0 608.8813101929335 646.4261456435889 560.7774542590734 0 -3 0
15203 157 10 0 605.3584073034027 645.4337587880433 561.1073071024338 0 -3 0
15202 157 2 0 601.4729994551545 646.5680099149192 562.2429492810662 0 -3 0
15201 157 9 0 601.3605413114028 647.5173357411793 566.0942699422343 0 -3 0
15200 157 17 0 599.1394448103591 649.5149541553244 568.2410422003826 0 -3 0
15205 157 18 0 610.1162585494905 645.6878203007583 557.2890128781274 0 -3 0
15206 157 18 0 611.8552446324062 643.0998499565108 555.0842318358021 0 -3 0
15209 157 12 0 617.1006749468046 634.6705424509469 552.7183711006109 0 -3 0
15213 157 1 0 628.1592669592268 635.8020892218441 558.7201615002482 0 -3 0
15211 157 2 0 622.3891473755418 633.2998271672535 554.6448621958073 0 -3 0
15212 157 15 0 624.8097501822328 635.0177933401912 557.2420080584303 0 -3 0
15210 157 17 0 618.7374047996293 631.9297694043636 554.3655111548908 0 -3 0
15208 157 2 0 613.7886207992048 635.8896115479165 554.668904421409 0 -3 0
15207 157 12 0 612.9853856259039 639.5319223595191 556.3396315884318 0 -3 0
15229 157 12 0 621.9975477703169 632.8256077127006 565.7451286575505 0 -3 0
18494 191 13 0 648.9107232444903 640.9602260842454 565.0198815072714 0 0 1
15215 157 18 0 633.7339816483253 635.8592966571495 562.2091553980104 0 -3 0
15216 157 17 0 633.9897265131285 632.1524403228717 561.8980639816333 0 -3 0
15214 157 11 0 631.7709159402108 636.2521955792482 559.0201983297089 0 -3 0
18493 191 18 0 648.4612537650321 643.5931040730443 567.4488777453133 0 0 1
18472 191 6 0 639.8256861933855 639.5499375377635 549.3725724782039 0 0 1
18475 191 1 0 648.7470017552484 640.6372130319947 551.8715391982604 0 0 1
18470 191 10 0 635.5741313991397 643.8517183538008 550.317348507383 0 0 1
18477 191 2 0 647.3286934653923 646.3478095261274 549.0124535118857 0 0 1
18476 191 9 0 648.3413949270664 644.4633631673778 552.6184043770991 0 0 1
18474 191 2 0 645.0782320083802 639.2707063536957 551.8869874231627 0 0 1
18473 191 9 0 641.6213452940889 640.3492655384124 552.3294020038815 0 0 1
18451 191 2 0 549.5687395110928 558.6081742278867 570.3536307909552 1 1 1
18434 191 18 0 563.9019893485178 566.1130906080706 569.2753755484787 1 1 1
18435 191 10 0 561.7617315285587 564.4671422869974 571.5494733861727 1 1 1
18439 191 17 0 556.5958158448835 560.8043573986375 578.0675176767471 1 1 1
18440 191 12 0 556.9978695399126 557.2298614825257 576.9078486617251 1 1 1
18438 191 12 0 557.3794586351992 563.974233581434 579.3178020481896 1 1 1
18436 191 12 0 560.9001246856056 566.2242418091611 574.65919078519 1 1 1
16833 174 12 0 564.590314051047 557.9090348964392 578.004468098957 -1 3 0
16832 174 17 0 564.9817520168294 560.0799673151886 581.3289254132561 -1 3 0
16831 174 13 0 564.5576973053761 563.4350234192733 582.9646946749383 -1 3 0
16827 174 9 0 553.3374194481094 559.4970505453958 584.4233014888611 -1 3 0
16828 174 2 0 555.8270183119507 561.2627376117932 586.7816225610856 -1 3 0
16829 174 12 0 559.7159016139609 560.5937225170609 586.7529353009531 -1 3 0
16830 174 6 0 560.950158495341 562.7442346798772 584.0679998477299 -1 3 0
18444 191 18 0 552.48276445936 550.0980972135434 571.4901521034711 1 1 1
18443 191 9 0 555.1118663333909 552.9050731407722 571.6666517219178 1 1 1
16834 174 12 0 568.2513642558572 557.6504569304799 576.1645949128449 -1 3 0
16835 174 2 0 567.4021681132082 556.0812576936696 572.6400230732378 -1 3 0
18441 191 20 0 559.6370815174586 554.3235556654931 576.0479398664023 1 1 1
16826 174 1 0 552.968681423735 562.8929955323455 582.5104537895149 -1 3 0
18442 191 2 0 557.1607276258147 551.4299435491154 574.3193198850853 1 1 1
16825 174 2 0 550.2782868724639 561.2772176628495 580.2196254787049 -1 3 0
16821 174 10 0 550.486095884454 567.5286787813915 572.1081633604381 -1 3 0
16823 174 6 0 548.9182906445795 565.0695077738613 576.8630101038815 -1 3 0
18437 191 12 0 557.8988726302908 566.9870908883187 576.8936261938788 1 1 1
16836 174 14 0 568.0216501304019 554.2287347918768 569.4335591310459 -1 3 0
16800 174 12 0 571.7129128720426 568.5781598026903 585.3085665085569 -1 3 0
16787 174 12 0 583.6839385283025 568.8670828742171 588.0159613108057 -1 3 0
16783 174 20 0 587.3787948399055 568.6981149624238 578.328766715671 -1 3 0
16782 174 1 0 586.3153294349607 565.4532994573174 576.5863304824446 -1 3 0
16799 174 2 0 569.9853332895066 567.5547835120263 588.4211910796497 -1 3 0
16839 174 4 0 575.4646999514118 554.8447967353458 571.503433924702 -1 3 0
16840 174 12 0 578.7803559505288 556.1927426345427 571.3419568712035 -1 3 0
16842 174 15 0 581.0430457212037 550.6959277799542 569.7557680858406 -1 3 0
16841 174 15 0 582.1832554678692 554.5549765021328 569.6658908773472 -1 3 0
16843 174 6 0 577.6097003256976 549.4057853995049 570.5097634574159 -1 3 0
15197 157 1 0 605.5076337966162 552.8470186475765 573.3517997182321 0 -2 0
15199 157 18 0 600.6162148879433 549.8609889192043 570.2620006702532 0 -2 0
15198 157 2 0 604.2095166867629 549.64384289224 571.8012157838951 0 -2 0
15196 157 13 0 606.367863387776 555.0915223165872 570.5895161765873 0 -2 0
15187 157 14 0 606.0714600958215 565.7841915054881 571.3034610329518 0 -2 0
15143 157 20 0 603.3807304270425 567.3629200793496 583.4053222569506 0 -2 0
15142 157 12 0 601.5952186355514 564.2595950708361 582.6857738887828 0 -2 0
15141 157 17 0 600.7702178893221 560.6381274074707 582.9064510779403 0 -2 0
15140 157 12 0 600.6436433271862 557.0542038392092 581.0145794901325 0 -2 0
15139 157 12 0 602.4720168585638 553.7759317785147 581.5665813577566 0 -2 0
15138 157 12 0 604.9931167768456 551.4197753689368 580.8350239928927 0 -2 0
15137 157 10 0 608.5369377234194 552.3729230966228 580.6746119946908 0 -2 0
15185 157 12 0 608.5050467232088 560.9443516857076 574.6739109432094 0 -2 0
15186 157 2 0 605.5636333098576 562.9489939811414 573.7480206543362 0 -2 0
15159 157 6 0 617.535724609716 559.4881188960086 569.4963156556387 0 -2 0
15158 157 17 0 620.2990341328207 558.2478443567126 571.860475002584 0 -2 0
15184 157 12 0 610.4959659393162 561.7462047163214 578.0576904676138 0 -2 0
15183 157 17 0 610.2298594845283 562.4718342717945 581.5658070998668 0 -2 0
15157 157 2 0 618.666936634194 558.1204524301484 575.3789914834433 0 -2 0
15169 157 2 0 617.9717746788507 564.0444183171456 570.9409457154749 0 -2 0
15182 157 13 0 612.3410663955412 560.8924734395525 584.6806092270011 0 -2 0
15155 157 13 0 619.329512942548 558.9018313057425 581.9573246265844 0 -2 0
15152 157 13 0 625.1610293265893 562.7262981813366 587.7431347937792 0 -2 0
15153 157 2 0 621.9926928716673 560.158137620071 587.8464346564548 0 -2 0
15154 157 12 0 620.1867474248716 557.6726611358638 585.7274422154156 0 -2 0
15156 157 9 0 619.705186743113 556.5800792236266 579.1250349505548 0 -2 0
15136 157 18 0 611.271029436852 553.4313798054393 582.8958427881628 0 -2 0
15135 157 17 0 614.8395311683224 551.8775091032809 584.4645791180781 0 -2 0
15181 157 6 0 614.6042874889306 564.2542804218775 585.0119867003317 0 -2 0
15170 157 13 0 615.8071493832049 564.1389292765369 574.6072508948514 0 -2 0
15180 157 12 0 617.0957519763817 565.8124420985375 582.564066071008 0 -2 0
15179 157 2 0 613.9330645965243 567.7800880206074 581.7882777614227 0 -2 0
15171 157 12 0 618.990750180563 564.9175026523345 576.5789658686826 0 -2 0
15173 157 18 0 622.7313378990224 569.2250274491446 573.3535088686456 0 -2 0
15172 157 10 0 622.3274619728116 566.3592596482857 576.1046466055828 0 -2 0
15149 157 9 0 618.7226157160889 566.983040445043 588.8515385403969 0 -2 0
18450 191 13 0 649.1536680477326 556.0271105135959 570.0889811289879 0 1 1
18488 191 4 0 642.0463371629271 551.9589837631945 570.6692172917716 0 1 1
18490 191 15 0 646.5269469667145 549.5086253695525 572.196936524566 0 1 1
18489 191 12 0 643.1829106158351 550.9136322270527 573.8625661403235 0 1 1
16824 174 9 0 649.4032968831204 562.3725469448915 578.6773627019273 -2 3 0
16822 174 18 0 650.5851815224858 568.4756817361291 575.3374978453339 -2 3 0
16803 174 12 0 564.5337716761387 570.7464730894043 581.7645322450257 -1 3 0
16804 174 13 0 562.6293951268149 571.5422498732382 585.1799905341137 -1 3 0
16820 174 12 0 550.5356193345154 570.923318446179 569.9396792387558 -1 3 0
16802 174 2 0 568.1031934987134 570.8300954080325 581.8952991247213 -1 3 0
16812 174 2 0 560.0906377468486 578.4554817551234 587.3940966004197 -1 3 0
16811 174 20 0 560.7399347730601 581.9046757596997 588.1105728157598 -1 3 0
16815 174 1 0 557.0531124098512 579.2522862453244 578.0459504222104 -1 3 0
16814 174 9 0 558.2327108706683 579.4572087264737 581.5490482425673 -1 3 0
16816 174 18 0 556.989522322391 579.4764982021319 574.3134526719039 -1 3 0
16813 174 12 0 557.7812244105709 577.1084182953779 584.3875233048184 -1 3 0
16817 174 17 0 554.0483046793552 580.4877372863027 571.8068304741472 -1 3 0
16818 174 2 0 553.3379446540932 577.2574045714339 569.7509078881305 -1 3 0
16805 174 9 0 563.9673515017137 574.5662021711642 587.7464480225999 -1 3 0
16810 174 12 0 564.362372488139 582.4956072117014 589.428933451219 -1 3 0
16786 174 10 0 584.7457140744433 572.487925063246 587.1659458103361 -1 3 0
16785 174 18 0 587.8399372883783 572.5948949482619 584.7418449847785 -1 3 0
16784 174 17 0 587.877331998097 570.2256057296411 581.6622138584505 -1 3 0
16801 174 13 0 571.1914414794961 571.9330508895184 583.9429131983884 -1 3 0
13182 136 15 0 579.9831988885401 588.9050320686297 579.819132803438 -3 -1 1
14072 146 12 0 606.5617498069366 573.1022311419149 569.9375610692846 2 3 0
14070 146 10 0 604.2517247500913 579.0795617566692 569.23259301417 2 3 0
14071 146 12 0 603.3401187037192 575.8419333140392 569.4711346101938 2 3 0
13192 136 12 0 593.9483529173358 583.1168886204844 569.4827086917228 -3 -1 1
15144 157 2 0 605.8222425200177 569.9993785104654 584.797219656498 0 -2 0
15145 157 9 0 607.3549294462074 572.772120349862 587.1318019484967 0 -2 0
15177 157 1 0 616.5155894603296 572.7782783104312 576.4059629389569 0 -2 0
15178 157 9 0 614.8366400569827 570.5937650300916 578.8944954992976 0 -2 0
15176 157 2 0 618.9322132874228 574.514530212721 573.7214846849765 0 -2 0
15175 157 9 0 622.2938404591034 574.5896649942347 575.9959642209676 0 -2 0
15174 157 6 0 625.2755911356892 571.9179514325622 574.489830184891 0 -2 0
15146 157 18 0 610.8313029126584 572.5859684364216 588.601567147791 0 -2 0
15147 157 12 0 612.7329409431431 569.3670716148628 587.7337651755579 0 -2 0
16106 167 18 0 553.0695960971767 600.3313389219223 577.0108563807618 6 1 1
16108 167 12 0 556.684922423897 602.550536346181 571.014534527384 6 1 1
16107 167 10 0 554.2404576875886 602.135052934374 573.7153679515914 6 1 1
16109 167 12 0 560.594175343527 602.2811296849011 571.6307818774965 6 1 1
16110 167 12 0 562.1766382307663 598.9454321911918 571.9979215048612 6 1 1
16111 167 17 0 565.5472684596276 598.8360795968978 573.6973388529749 6 1 1
16112 167 12 0 567.5711722745207 595.6861296104041 574.4097496754661 6 1 1
13162 136 18 0 564.3332149503617 610.0671765794286 578.942975018791 -3 -1 1
16103 167 1 0 552.7103941865428 607.4022526770923 582.4361454314096 6 1 1
16104 167 20 0 554.292716658699 604.0527818815556 582.5045099328217 6 1 1
16105 167 17 0 553.7920479444007 600.5726417998025 580.7402846343739 6 1 1
16167 167 1 0 568.6148308470393 603.6865491330816 570.186942767583 6 1 1
13163 136 17 0 566.1471677316392 606.8292279018019 577.6350800969707 -3 -1 1
16502 171 2 0 551.2366293165389 609.0513704123106 589.0222962389305 1 3 0
16117 167 12 0 582.575278875204 602.4077840407016 574.387284762225 6 1 1
16118 167 18 0 586.198036405826 601.3076037203291 573.2261648958954 6 1 1
13179 136 17 0 576.0501069448904 595.4162738442108 584.4158371787884 -3 -1 1
13178 136 18 0 576.8941578942618 594.7756477652927 587.9576710252442 -3 -1 1
13181 136 18 0 576.9269370838085 590.5581695639116 579.0579279628505 -3 -1 1
16164 167 6 0 576.2290582398123 606.6128627728684 572.1730699302975 6 1 1
13185 136 5 0.75 583.4024245139262 592.2398162031627 572.6389893900135 -3 -1 1
13186 136 10 0 582.2326532855218 594.0373132260438 569.4168863764286 -3 -1 1
13183 136 2 0 582.043959179518 591.5973282169792 578.5125950208853 -3 -1 1
13184 136 9 0 584.8820652300418 591.2553300953058 575.8237645949976 -3 -1 1
16113 167 20 0 571.5427416567567 595.8896697525056 574.277010484834 6 1 1
16114 167 2 0 574.9368370938596 597.7157508258399 575.4732175529618 6 1 1
16115 167 9 0 578.887267899361 597.0399205993843 576.0534300403742 6 1 1
16116 167 18 0 580.9167067829884 598.9845087480019 573.5265763116801 6 1 1
16119 167 9 0 588.5593038139783 598.1422812062917 573.4613766652825 6 1 1
16157 167 14 0 587.9773217916625 607.2475993122474 569.4678905277183 6 1 1
13180 136 12 0 576.5085470102898 592.4571622385754 582.3733962322937 -3 -1 1
16166 167 13 0 572.1359023733611 601.9290897491582 570.5101037637511 6 1 1
16165 167 18 0 575.2961073191473 602.8986891085909 571.6043133330181 6 1 1
16163 167 15 0 576.5481447115856 610.176987809119 570.9858145885595 6 1 1
13165 136 2 0 572.5506555103611 607.2180469143863 576.1566469966393 -3 -1 1
13166 136 10 0 575.7628129049734 606.872473182013 578.2750616890537 -3 -1 1
16159 167 12 0 582.1395837329762 609.6324273004657 572.003819202808 6 1 1
16158 167 17 0 584.8139476691343 609.1170741238634 569.8457920010541 6 1 1
13164 136 9 0 569.5211695305021 605.2736345246138 578.0018284288535 -3 -1 1
13167 136 12 0 576.8572867341031 603.8696495655905 580.3084652200465 -3 -1 1
13168 136 18 0 574.9412724609084 602.1775044973456 583.2470582346501 -3 -1 1
13169 136 18 0 573.2346158794322 603.4762581867813 586.326011003308 -3 -1 1
13170 136 12 0 574.5126443443552 603.1873129558013 589.6035991716263 -3 -1 1
16121 167 12 0 591.2809112415349 591.8060279630349 571.5478423693169 6 1 1
16120 167 2 0 591.0407981034509 595.316343173104 572.5540803771196 6 1 1
16123 167 2 0 597.4078780237671 591.513950794587 570.5827382102732 6 1 1
16122 167 13 0 594.7191926365285 590.0707244023432 572.7829174778949 6 1 1
13112 136 9 0 605.3110942735841 604.5857528274681 586.7800688072246 -3 -1 1
16124 167 12 0 599.599566135186 594.4793381980501 570.8447397740467 6 1 1
16152 167 13 0 601.6415556664745 603.7204171304746 574.7575548293978 6 1 1
16151 167 6 0 602.7838961882386 606.4289232484871 577.2734953680782 6 1 1
16150 167 12 0 604.7483799114993 609.3796899197584 579.4923992806796 6 1 1
16156 167 2 0 589.8930423384559 604.4012006536351 571.6224879788333 6 1 1
16155 167 12 0 593.70096976301 604.4665354664128 572.191558755914 6 1 1
13111 136 18 0 608.0419376683393 606.8507839778969 585.6089800760956 -3 -1 1
16154 167 12 0 594.832805039116 601.5135863666699 573.6588622177087 6 1 1
16153 167 17 0 598.8793206224057 601.5916574009677 574.5182559938577 6 1 1
13110 136 12 0 609.3652318511228 610.1615160166664 587.4382739457791 -3 -1 1
16137 167 18 0 613.0571561601693 598.8141288700211 570.7614802698422 6 1 1
16138 167 17 0 615.6568199556731 599.5576960709602 573.6952674194869 6 1 1
16139 167 2 0 615.6731320673883 603.3728261868451 572.9112643945268 6 1 1
16140 167 13 0 615.6872507653933 606.9783094677135 572.2567998590147 6 1 1