LAMMPS data file via write_data, version 8 Apr 2021, timestep = 11390002

6208 atoms
40 atom types
6144 bonds
1 bond types

548.8454457994151 651.1545542005849 xlo xhi
548.8454457994151 651.1545542005849 ylo yhi
548.8454457994151 1265.009204607604 zlo zhi

Masses

1 131.199997
2 57.0499992
3 128.199997
4 101.099998
5 156.199997
6 71.08000180000001
7 115.099998
8 129.100006
9 163.199997
10 99.0699997
11 113.199997
12 128.100006
13 186.199997
14 147.199997
15 87.08000180000001
16 137.100006
17 114.099998
18 97.1200027
19 103.099998
20 113.199997
21 131.199997
22 57.0499992
23 128.199997
24 101.099998
25 156.199997
26 71.08000180000001
27 115.099998
28 129.100006
29 163.199997
30 99.0699997
31 113.199997
32 128.100006
33 186.199997
34 147.199997
35 87.08000180000001
36 137.100006
37 114.099998
38 97.1200027
39 103.099998
40 113.199997

Bond Coeffs # harmonic

1 9.6 3.81

Atoms # full

14257 147 8 -0.75 590.2765784980575 553.8944547174946 550.5282591087843 1 0 0
14259 147 12 0 595.7751714393572 552.9173669126003 554.5573005505803 1 0 0
14258 147 4 0 592.5061146820368 552.0748249592384 553.0499230937686 1 0 0
17469 181 17 0 552.2288650580662 640.7544201212214 567.2995001467393 -2 3 0
15456 160 9 0 554.8898786123219 553.5936855916381 573.2545239873825 1 7 0
15457 160 1 0 557.8600887919935 551.2143271147754 572.8230370888813 1 7 0
15448 160 2 0 554.0215084868055 552.3070319994199 580.622542890889 1 7 0
15447 160 9 0 555.6739456518567 549.5167637159716 582.1817619902272 1 7 0
15444 160 2 0 563.7867284196642 548.9462023386704 580.5521817896987 1 7 0
15443 160 13 0 564.9119375975541 552.6109151743191 580.3669891871554 1 7 0
15442 160 12 0 563.2308956474164 555.2913638340356 578.3297012812388 1 7 0
15449 160 17 0 550.3676001325562 551.8776952883218 580.154388855993 1 7 0
15430 160 12 0 557.4756362370409 557.3583334581144 583.0244474746518 1 7 0
15429 160 12 0 553.8635404526323 557.7145390493293 583.6313210198548 1 7 0
15441 160 2 0 564.6696189831197 557.9362244071416 577.0955518602216 1 7 0
15440 160 9 0 566.5749677889315 560.3476704914264 579.460125777758 1 7 0
15428 160 10 0 551.2432635316604 557.0803661565184 586.3682493562994 1 7 0
15439 160 18 0 567.4316320922671 562.2621362465941 582.5954352722831 1 7 0
15431 160 12 0 558.3094175318649 555.5959709562394 586.7478337528291 1 7 0
15438 160 12 0 568.9044144691829 560.8852444060367 586.0115107065109 1 7 0
15455 160 12 0 551.8801267661763 553.813265395209 570.6273437453169 1 7 0
15427 160 18 0 549.1500996507762 554.1440616254533 586.0500217709068 1 7 0
16779 173 8 -0.75 582.4977866285899 556.5986587195848 573.8532291773957 -1 -4 0
16780 173 4 0 582.9823041028029 552.848453298999 572.793711361544 -1 -4 0
16781 173 12 0 582.3180400671062 552.0767330815233 568.859656122507 -1 -4 0
16778 173 9 0 581.7099889486364 559.7918973844968 575.5288467253324 -1 -4 0
13321 138 12 0 588.9176691941911 551.2757399442733 577.5723256718215 2 3 0
16777 173 2 0 578.5902858197234 561.1463034389652 574.5787625360504 -1 -4 0
16774 173 5 0.75 577.4551233830526 564.7524023916228 579.1211126757139 -1 -4 0
16775 173 10 0 575.0569922221156 563.8977491040517 576.4450017987573 -1 -4 0
16776 173 6 0 575.0520381383252 562.5195934159974 573.0445304648886 -1 -4 0
16773 173 9 0 576.3735792948219 567.7940992095823 581.1697444090561 -1 -4 0
17113 177 18 0 580.5085114823938 551.3254510055122 586.6185087569853 -2 1 0
17114 177 6 0 579.2314205813128 553.8558768138384 584.7562558073193 -2 1 0
13313 138 9 0 592.4349490771993 562.5092668930714 580.2631957665326 2 3 0
13312 138 13 0 589.74371805219 564.453608363046 581.7653704249058 2 3 0
13316 138 6 0 594.5883971540811 556.9473674857743 576.0784292534022 2 3 0
13317 138 12 0 596.7118436660816 557.0030455990996 579.5616880254105 2 3 0
13315 138 17 0 590.682675756858 556.9875783039145 577.1837080068007 2 3 0
13311 138 12 0 585.8246239574895 564.5527410514384 581.7833114695411 2 3 0
17119 177 2 0 592.0288060787786 554.7384007657492 586.6553719365393 -2 1 0
13310 138 2 0 583.6840359795303 567.5061937907735 582.1988396010051 2 3 0
17117 177 1 0 587.0503842808528 555.8768298124911 585.8322834958636 -2 1 0
17116 177 2 0 583.9854620280826 555.6684118197452 583.2230199331464 -2 1 0
17115 177 9 0 580.6760288277628 557.3266835960657 583.5351821931614 -2 1 0
13314 138 2 0 591.5131529516688 560.7126962602148 577.0891187411543 2 3 0
17118 177 9 0 590.3005989820103 557.4085823143707 584.7192454134464 -2 1 0
17135 177 18 0 595.3208575352465 565.7060919861099 585.7005549696619 -2 1 0
13322 138 9 0 586.1154425981897 548.927641700255 577.532476267982 2 3 0
13319 138 20 0 595.2788076074642 550.7574555580837 579.5206384591189 2 3 0
13318 138 12 0 595.9756726171358 553.84217554718 581.5486551991485 2 3 0
13320 138 2 0 592.5634448198996 552.559077003167 576.9744212803848 2 3 0
17134 177 6 0 598.224402054953 566.9537483366873 583.7368844990816 -2 1 0
16768 173 17 0 574.3049170864524 578.4766251650285 577.0966770517689 -1 -4 0
16767 173 18 0 573.5747069469397 581.5773142173804 579.6364584782658 -1 -4 0
16766 173 11 0 573.7336613477036 584.4005542705889 582.0304869026332 -1 -4 0
16772 173 2 0 577.3957118918217 570.7499792294124 582.3762430124466 -1 -4 0
16771 173 15 0 577.1868548614187 573.8873378395745 580.3763647258779 -1 -4 0
16770 173 18 0 578.4394169376441 573.2829155544678 576.927623902875 -1 -4 0
13309 138 13 0 584.0056281458615 571.1022122913192 583.3776850008381 2 3 0
13308 138 12 0 583.5765657294534 570.1681345980959 587.2222153390663 2 3 0
16769 173 12 0 576.6517949036395 576.1528340902529 574.9840479138066 -1 -4 0
16764 173 15 0 578.7908252174608 585.8471587932316 583.4501597567269 -1 -4 0
16765 173 1 0 575.7102039171449 587.3640611533528 583.6358307152873 -1 -4 0
16763 173 2 0 578.4230224607813 582.9450044356511 586.0531545487844 -1 -4 0
17088 177 18 0 561.1415174586357 629.8006483523931 585.1119247877158 -2 0 0
17087 177 12 0 559.9963763715167 627.0264303642791 583.2760031031862 -2 0 0
17086 177 18 0 563.2076665357299 624.633588795979 583.5414076451689 -2 0 0
17084 177 2 0 567.4546449192948 625.1885357417349 577.879380207296 -2 0 0
17085 177 9 0 565.1481982486683 626.3118793765075 580.5843860346272 -2 0 0
17081 177 17 0 573.6389934084972 627.2907840046363 583.0037606582457 -2 0 0
17082 177 12 0 573.5812936653316 625.1668187782965 579.7924707471623 -2 0 0
17083 177 20 0 571.3953556222233 625.1208996401617 576.2774567205198 -2 0 0
17080 177 12 0 576.2686674647549 629.9808851221661 584.8173927139994 -2 0 0
16727 173 9 0 599.399491376894 612.9266023328292 586.2495393135355 -1 -4 0
15445 160 12 0 561.1104909421897 648.6105505320955 581.4461033087982 1 6 0
15446 160 13 0 558.971790231844 650.6140516198043 583.7780915599602 1 6 0
15459 160 17 0 556.022199764426 649.2523788170379 575.895396074781 1 6 0
17089 177 9 0 563.4463531160918 632.9665346338595 584.8878685916981 -2 0 0
15458 160 18 0 559.2105894755954 649.7366079145593 573.7777289608688 1 6 0
17465 181 10 0 558.2218940580708 642.6002688213282 578.71054608519 -2 3 0
17464 181 18 0 560.7239429301582 640.835431525185 580.1718689921261 -2 3 0
17463 181 17 0 561.096184540513 642.349359966015 583.4417495817986 -2 3 0
17462 181 20 0 564.665488966725 643.687980992595 583.7995562195969 -2 3 0
17461 181 1 0 567.9405687511853 644.4172681153021 581.8578981397462 -2 3 0
17466 181 12 0 557.5884257493946 640.2302299001547 575.5402107718595 -2 3 0
17090 177 2 0 561.4691253180745 636.1960533244949 586.4492702563145 -2 0 0
17091 177 12 0 557.5523975705485 636.9407456144793 586.8994849303087 -2 0 0
17468 181 12 0 555.4784451724516 640.7090571772198 569.0785977170858 -2 3 0
17078 177 12 0 570.8205966720285 633.1542151732807 584.274616394076 -2 0 0
17077 177 10 0 568.9699125578086 635.2378519557026 586.87207377968 -2 0 0
15460 160 2 0 552.4965046846484 647.571954228872 575.2864259200853 1 6 0
15461 160 13 0 549.0452674241986 648.2079294320944 576.1758855100502 1 6 0
17467 181 12 0 555.3954086919385 641.6225660429747 572.9476928568442 -2 3 0
17470 181 12 0 548.9775608150711 641.8319573769589 568.8090735911585 -2 3 0
17168 177 4 0 596.6317520728797 638.8326161754643 575.6148713089453 -2 0 0
17169 177 12 0 593.353042905665 637.796673017795 577.4994661473036 -2 0 0
17167 177 8 -0.75 599.2852684603871 636.1958301430238 577.0930829531126 -2 0 0
13327 138 13 0 578.6676644928391 643.6680974917223 580.7586119801983 2 2 0
13290 138 1 0 585.746930719256 633.2913735134572 578.7187345624948 2 2 0
13292 138 17 0 586.1591411192769 637.8897275633096 582.7363136923974 2 2 0
13324 138 18 0 581.7772455161495 646.6316433834423 575.8753163884066 2 2 0
13325 138 17 0 584.4540643007213 644.2471425701735 577.7793843633445 2 2 0
13323 138 1 0 582.4776228428831 650.1030975316237 577.440632755964 2 2 0
13326 138 2 0 581.5544357565617 642.1112012795971 579.2552127584433 2 2 0
13293 138 18 0 588.6745538117721 640.0839091749872 584.3837367191474 2 2 0
13291 138 20 0 587.0824307355794 637.0694931011659 579.1409014144756 2 2 0
13329 138 10 0 581.0837146630627 644.6547503075421 587.1526213995764 2 2 0
13328 138 12 0 578.4580336876456 645.1603678013 584.0644572179345 2 2 0
17163 177 10 0 594.3490691415448 632.9081889057932 582.5597881011023 -2 0 0
17164 177 6 0 596.3787597439937 634.7147621044935 585.3394091605379 -2 0 0
17165 177 2 0 598.128689168421 634.7615213119616 581.771352113824 -2 0 0
17079 177 12 0 574.6704916261025 633.0934174502133 585.2716018877785 -2 0 0
17162 177 5 0.75 591.3525808789731 632.2003216077516 584.893707751463 -2 0 0
17151 177 2 0 600.315724066492 640.4075602617219 580.4215133655896 -2 0 0
15517 160 9 0 598.3873013491789 648.3865037335468 569.3415770219199 0 6 0
17152 177 15 0 599.8756310729184 640.1000406541225 584.0514323592325 -2 0 0
15518 160 8 -0.75 597.709832825153 645.6206122091735 571.7697043133699 0 6 0
15520 160 12 0 592.1424510366603 645.0751416668958 575.6783599155704 0 6 0
15519 160 4 0 595.4075712922319 643.7193261472443 573.6127772721532 0 6 0
17166 177 9 0 599.1372917868465 632.7955227954776 578.918290335219 -2 0 0
12618 131 12 0 565.6364726993188 554.5477604710467 601.5607275381998 3 5 0
12617 131 12 0 561.8504157916827 554.573759532777 602.5974202635452 3 5 0
12616 131 12 0 559.6222553691255 557.7111887506568 601.4752765806422 3 5 0
15432 160 17 0 558.8817972497615 558.2382601025109 588.9709808580047 1 7 0
15433 160 12 0 558.1413150787225 561.5206004225358 590.8599303971479 1 7 0
15434 160 20 0 559.4321609460361 564.8013956358478 591.9242109542256 1 7 0
15437 160 18 0 567.4252167732658 562.5496771726771 588.8544855628544 1 7 0
12620 131 12 0 571.7633145072402 554.5937816445644 597.3107743723851 3 5 0
12619 131 17 0 568.9393116951768 555.0523855622112 599.7176563635419 3 5 0
13342 138 12 0 559.7973244238373 550.0108793054305 591.8312426130226 2 3 0
13340 138 17 0 564.6416008001157 551.538265030905 595.5434478727441 2 3 0
12614 131 18 0 558.2646002362067 563.7958753739853 603.1887330809053 3 5 0
12613 131 17 0 554.2115390742518 563.6336451435988 604.1179497025931 3 5 0
12638 131 12 0 568.488324378269 561.212850175466 601.6696975449921 3 5 0
12615 131 10 0 560.5590310280024 561.3590414014616 601.3257468516446 3 5 0
12612 131 20 0 553.687607219771 560.4603704694783 602.0930183670229 3 5 0
12611 131 1 0 551.5134361370683 557.2715324295197 601.5663946253903 3 5 0
12622 131 2 0 574.33766165561 557.6554008958319 591.1076264318901 3 5 0
12623 131 9 0 572.6072503253307 560.8311659026647 591.8928463742905 3 5 0
12621 131 20 0 572.7816137166081 554.9507058230523 593.7194164488064 3 5 0
12636 131 17 0 574.0354496818511 561.46058653012 603.2587501829503 3 5 0
12637 131 6 0 570.9922872577109 564.0156690899313 603.0219557631508 3 5 0
15435 160 2 0 562.9890815736185 564.3920307681659 593.0818399714049 1 7 0
15436 160 9 0 565.4775978721841 561.3304262463224 592.4271526329887 1 7 0
17110 177 13 0 570.0996539819454 549.9116729086572 587.6935016252144 -2 1 0
17109 177 2 0 566.6275617757979 549.4278042227924 588.734964309536 -2 1 0
17111 177 12 0 573.7147290041091 549.6442452471894 588.537315963192 -2 1 0
13341 138 12 0 562.8867500189136 551.7910527019591 592.4821446638641 2 3 0
12639 131 12 0 565.6698628130487 560.9569883816614 604.5853092770443 3 5 0
15425 160 20 0 550.6828251622605 548.917971422831 588.5808810686734 1 7 0
17112 177 10 0 577.500077240678 549.3022145665512 588.1089037126408 -2 1 0
17121 177 6 0 598.8118198234276 556.7229259786633 588.0514065887054 -2 1 0
17120 177 12 0 595.0123832742594 555.719758246536 588.9575533201821 -2 1 0
13306 138 9 0 578.2513379946156 565.1522317894762 589.1239118880742 2 3 0
13305 138 18 0 581.0416618222514 564.6296482566429 591.3523232832204 2 3 0
13307 138 2 0 580.0991201083476 568.6794937861924 588.7183497226091 2 3 0
13304 138 12 0 584.2889730505646 562.8712716026774 590.1990961597278 2 3 0
13303 138 18 0 587.8721433502661 561.8363720064114 589.1933328380852 2 3 0
17136 177 13 0 596.4112924861358 563.1959145827358 588.6675553808776 -2 1 0
17137 177 1 0 595.4749171649888 561.696717598673 592.0175266299701 -2 1 0
12630 131 13 0 584.2181002871364 550.8722616816945 591.9024842912801 3 5 0
12625 131 12 0 578.2534370842706 562.9697940226422 596.3778271350457 3 5 0
12624 131 18 0 575.1942027904865 562.0766803033099 594.1654864825631 3 5 0
12626 131 18 0 581.3063899748249 560.976270461331 596.1391640650197 3 5 0
12629 131 12 0 586.896212021962 552.6381911639447 594.0773145761522 3 5 0
12628 131 2 0 585.8801668538375 555.3815959262041 595.8741747627112 3 5 0
12627 131 9 0 584.4511573564921 558.9746893539509 596.4863652813051 3 5 0
13302 138 9 0 589.0649688334289 559.3531823524419 591.7339982661165 2 3 0
13301 138 2 0 590.2420114387238 559.1800854760232 595.1748405103749 2 3 0
13299 138 12 0 591.9578341275922 552.8149468957462 598.2937406164881 2 3 0
13300 138 20 0 592.4014841927421 556.3877521516885 596.7666784413287 2 3 0
13298 138 17 0 590.3160538515931 549.2427021199109 598.1751788173966 2 3 0
12632 131 12 0 580.1773211705225 552.5286558756542 596.7732359403209 3 5 0
12635 131 2 0 575.6755961083173 558.636258347504 601.6407153724372 3 5 0
12634 131 9 0 579.5625257828062 557.5646839848812 601.8381893658238 3 5 0
12633 131 13 0 580.625288320608 554.213143586156 599.9721224358614 3 5 0
12631 131 2 0 581.7183395839472 549.9116201628386 594.3228291891596 3 5 0
17138 177 2 0 598.6553340437015 559.3477525283137 593.0577039308187 -2 1 0
16759 173 12 0 586.8756345147822 588.6785065513476 593.3159306863948 -1 -4 0
16762 173 17 0 580.9283724909861 584.4410577804808 588.6425003659133 -1 -4 0
16760 173 2 0 584.5531668533238 587.5559793834968 590.9296643471098 -1 -4 0
16761 173 12 0 584.409608151906 584.9787732135446 587.4049788739769 -1 -4 0
16685 173 1 0 597.2030286645764 580.1381778556795 606.3091927714723 -1 -4 0
16758 173 18 0 588.7583906799603 590.9358976057059 595.2185070461748 -1 -4 0
16757 173 18 0 591.8269035136515 592.5805396104855 597.1594820782246 -1 -4 0
16756 173 12 0 592.4177222148522 595.4608406171333 594.8144326143632 -1 -4 0
16755 173 10 0 592.960818689541 599.0023594503411 596.3328833951924 -1 -4 0
16754 173 2 0 590.0520692281262 601.5980826705664 595.9218787444452 -1 -4 0
16752 173 17 0 587.914472530394 602.333391680332 589.0802412933167 -1 -4 0
16753 173 9 0 587.9180109221863 601.1142149099923 592.8889507686099 -1 -4 0
16751 173 18 0 590.5818224701934 605.0545987567086 588.7812773315294 -1 -4 0
16750 173 2 0 591.5516954414732 608.0510958505613 591.1093485650057 -1 -4 0
17099 177 6 0 559.3258181571285 627.3597301656532 604.0206866885115 -2 0 0
17100 177 12 0 556.520198583844 627.3314087254698 601.9486060347222 -2 0 0
17101 177 12 0 555.8994662196907 630.3275314622974 599.8423658520298 -2 0 0
13584 141 18 0 568.1404075213705 616.0287128574695 603.6642547722277 -1 5 0
17097 177 2 0 562.5364174641736 630.4436230521665 601.46764465346 -2 0 0
17098 177 17 0 562.4834223176365 626.5736483728841 602.0254319799402 -2 0 0
13581 141 1 0 559.6424952820003 615.8168187915537 605.255632278764 -1 5 0
13583 141 17 0 565.6468657982932 615.1892671014773 600.7547340898818 -1 5 0
13582 141 20 0 562.7550375772153 615.2558821952524 602.844851981962 -1 5 0
13587 141 12 0 570.6295174561586 623.7505597759479 605.8063081647415 -1 5 0
13588 141 12 0 570.2380554670275 627.4545912724252 605.6099005201471 -1 5 0
16747 173 18 0 597.3316267842448 617.2757721462615 591.531807002969 -1 -4 0
16746 173 6 0 598.7016494444018 620.8002783756815 591.5300659616296 -1 -4 0
16749 173 1 0 592.275493643231 611.4244525131963 592.8830523749783 -1 -4 0
16748 173 13 0 594.8829875220464 614.4753850451996 592.9873303253698 -1 -4 0
12653 131 9 0 578.919267511517 630.5767766223413 602.9784789091017 3 4 0
17161 177 9 0 590.7123342934897 630.3294590576827 588.2351091540704 -2 0 0
12662 131 12 0 590.6577723845942 628.3121659404154 604.3390809063842 3 4 0
12661 131 17 0 592.654847230366 629.6614899670252 601.4274756274191 3 4 0
12664 131 2 0 588.3764033710655 623.5683643528706 606.5487065489268 3 4 0
16199 167 12 0 593.7648391033275 622.6811799700326 600.8663879928212 1 -1 0
16198 167 4 0 597.1302651472746 622.3457229611349 602.4822437145024 1 -1 0
13350 138 15 0 550.4466544029757 639.3276932160268 600.9350384905913 2 2 0
17092 177 13 0 555.797714818121 634.4005383936613 588.8424032160373 -2 0 0
15424 160 1 0 552.8352866341351 648.1048214395431 588.1755417510263 1 6 0
13344 138 14 0 556.4697277794305 648.126155574585 596.8192599885022 2 2 0
13343 138 2 0 557.6259765124659 650.2074601874904 594.4655427305817 2 2 0
13345 138 17 0 554.339147894329 644.9030859458437 598.022604652397 2 2 0
12645 131 18 0 565.7403391738876 647.4048113474015 604.7010675637976 3 4 0
12644 131 1 0 566.4321220885093 651.1421498085168 604.1713821037374 3 4 0
12647 131 2 0 571.9575014167634 644.0604205214023 602.6320146069718 3 4 0
13347 138 4 0 551.7305314452699 639.847203159084 593.6453187098958 2 2 0
13337 138 12 0 570.7975376282599 647.4119555094547 597.6263596235386 2 2 0
17095 177 13 0 562.6248601312126 633.8588820216029 595.8943133109339 -2 0 0
17094 177 12 0 562.1304925665133 632.3074491889687 592.114632655946 -2 0 0
17093 177 2 0 559.1304470227341 632.909532118416 590.16559454344 -2 0 0
17073 177 1 0 572.6348604568905 636.1229552572344 597.5100498838684 -2 0 0
17096 177 9 0 562.9334644627726 633.686941969109 599.5391329943523 -2 0 0
17108 177 17 0 565.6340467798477 648.7567690012905 590.8678756447963 -2 0 0
17107 177 18 0 562.9057844782973 647.132693111157 592.4652212450301 -2 0 0
17074 177 20 0 569.3634631278547 637.1909271079635 596.8590103682099 -2 0 0
13339 138 13 0 565.4064628886925 650.870649538215 597.8079744001506 2 2 0
13338 138 6 0 568.9330070632324 650.6795094081964 598.0857928030438 2 2 0
13351 138 6 0 553.9505471978288 640.6192661371111 601.5130582051186 2 2 0
13352 138 18 0 555.136594357304 641.3599496166269 605.1333602289634 2 2 0
17104 177 12 0 557.4302968722623 638.4692223363804 595.1543047750554 -2 0 0
17103 177 2 0 554.6152440709493 635.4408651964092 595.4113381207236 -2 0 0
17102 177 20 0 555.0106999820459 632.1073521299115 596.3819798577299 -2 0 0
17106 177 1 0 560.4110050552732 644.416239640419 592.739582867571 -2 0 0
17105 177 9 0 558.9607405221586 641.0200263184656 592.7231641011388 -2 0 0
12646 131 17 0 568.8171078368852 646.1413059946739 603.28514295968 3 4 0
13336 138 2 0 573.2709923371048 648.6543874639373 600.4082579315628 2 2 0
17075 177 17 0 568.1084727737828 635.7534032074598 593.6142085893579 -2 0 0
17076 177 18 0 567.0129908351848 636.4589547318004 589.9061851369484 -2 0 0
13349 138 15 0 549.069513617669 637.3307648604072 598.1320336640713 2 2 0
13346 138 12 0 551.7664994049084 643.2553389032201 595.2579872811382 2 2 0
13348 138 12 0 549.7285906761422 636.7479389321919 593.8804875810554 2 2 0
13294 138 10 0 587.4586029868148 641.9376999681186 587.7462771412991 2 2 0
13295 138 12 0 590.2472598769513 644.004726326987 589.3125010743178 2 2 0
13330 138 18 0 583.5000909551985 644.1891329753488 589.9098956703721 2 2 0
13297 138 12 0 590.1518071658493 648.2380081563499 595.7894723857714 2 2 0
13296 138 12 0 589.6523441114854 645.9619531897986 593.0756381985409 2 2 0
12657 131 2 0 584.4024416758878 638.281200578752 596.7118477317293 3 4 0
12648 131 13 0 574.6480907965231 643.1406853499223 605.0083595344629 3 4 0
12649 131 12 0 576.4696739075706 639.7127910978282 604.4359794508755 3 4 0
12650 131 10 0 574.9864268699607 636.8070280060182 606.1333846691831 3 4 0
13332 138 9 0 583.5767470422205 647.2005130325496 596.524390940857 2 2 0
13331 138 6 0 583.2021390168569 646.7413493337729 592.8843226650547 2 2 0
13333 138 2 0 582.4484176608726 644.3636825177457 599.6854601725247 2 2 0
17160 177 2 0 591.2371462982321 633.4260461196237 590.6543554089117 -2 0 0
17159 177 15 0 593.8560072489175 635.4746279629861 591.8137798599719 -2 0 0
12658 131 12 0 588.3837632862243 637.5977405060257 597.1957463926083 3 4 0
12659 131 6 0 591.99441580542 635.6116580251528 597.6126813149898 3 4 0
12654 131 2 0 579.3594473300261 632.7586618565156 600.015382807722 3 4 0
12655 131 1 0 578.6357792931908 635.2519013875769 597.165267486755 3 4 0
13334 138 1 0 579.4090801222209 646.439612716099 600.4829850215193 2 2 0
13335 138 9 0 576.8889011796791 649.6017593675972 600.0160835015458 2 2 0
12656 131 9 0 580.6885754871277 638.3831111518849 597.4831686231274 3 4 0
17158 177 18 0 596.3140283571591 636.4169998479234 594.3960498352004 -2 0 0
17157 177 12 0 599.745467000721 637.9503789303724 595.3976666890252 -2 0 0
12660 131 13 0 593.1524029673881 632.017329672759 598.643462103553 3 4 0
17155 177 18 0 599.1823124796418 644.1862762509813 592.3136228732731 -2 0 0
17156 177 17 0 600.4099277938101 641.4902586652124 594.2988748674446 -2 0 0
13375 138 18 0 549.2636749720992 560.5892650531764 610.9062070318075 2 3 0
12640 131 20 0 566.0484513960191 558.9606361114983 607.6252893943101 3 5 0
12642 131 12 0 567.4356739322358 553.1108423534502 608.5531599883354 3 5 0
12641 131 2 0 564.9558870791078 555.4895295470009 607.6605593729577 3 5 0
12643 131 9 0 566.4340807683449 549.5435218607159 608.0921627343743 3 5 0
13368 138 2 0 551.6101855315706 550.2589331441064 620.3060856526267 2 3 0
13364 138 12 0 560.2403682070254 550.4560886793714 620.3514018325966 2 3 0
15781 163 18 0 571.87072275957 562.2681228257437 624.9932876668506 2 3 0
15786 163 12 0 564.7777836715868 566.6444506702014 624.5000645260715 2 3 0
15787 163 18 0 568.509730011313 567.7954231099297 624.826349658264 2 3 0
13382 138 2 0 550.9748352952105 563.9506275977427 624.8547227360986 2 3 0
13384 138 8 -0.75 556.5349225391138 566.1163166412572 622.6235429102679 2 3 0
13385 138 4 0 556.5345670300514 567.9462372460101 625.7745178172793 2 3 0
13383 138 9 0 553.8386644572872 563.4165606260464 622.1941516673098 2 3 0
13369 138 15 0 549.0526935766426 552.6101667343672 620.6904577602179 2 3 0
15779 163 1 0 575.9077363389868 558.0947733530846 624.0233690396047 2 3 0
15780 163 2 0 575.488222797447 561.7397408209087 625.4388197495301 2 3 0
16686 173 20 0 599.327223639087 580.3297040450204 609.4138499876099 -1 -4 0
16688 173 18 0 599.3465501664099 587.2407384024661 611.8879471413727 -1 -4 0
16687 173 17 0 599.0185456921985 583.408798462857 611.3210780287316 -1 -4 0
16691 173 12 0 599.4213562187047 594.5141111752177 617.5315123775953 -1 -4 0
16690 173 12 0 598.8500708068144 594.3728419492132 613.6388598090609 -1 -4 0
16689 173 10 0 598.2105318605264 590.2724181130105 613.4854362563708 -1 -4 0
15742 163 12 0 551.6327455832441 630.1963721555404 624.0377450664832 2 2 0
15741 163 6 0 551.8967952694703 629.2679081319258 620.4419357573821 2 2 0
12673 131 18 0 574.517983648418 613.3403204777325 615.0551200805353 3 4 0
12674 131 13 0 573.7780240809669 612.6434587062721 618.5818049299647 3 4 0
12675 131 1 0 572.1555140718539 615.6933362963441 620.2509745999608 3 4 0
12678 131 17 0 564.2571405056185 620.5561075527636 625.0069996300725 3 4 0
12677 131 18 0 566.8552111486193 618.0251496813894 624.3356577033494 3 4 0
12676 131 2 0 569.9897042218229 617.4371258935834 622.5126499302926 3 4 0
13585 141 10 0 567.2053119477794 618.8246522304613 606.6906926716324 -1 5 0
13586 141 12 0 568.0488641273405 622.3023098461589 607.7838535687424 -1 5 0
13591 141 20 0 563.0638817975661 626.4002981658002 613.6434541261333 -1 5 0
13590 141 12 0 564.7824863082748 627.5653675117118 610.278429505535 -1 5 0
13589 141 17 0 567.5929908509686 628.7921647034216 608.1077510862857 -1 5 0
13592 141 2 0 561.0477937778937 629.6243229603188 613.4815497846487 -1 5 0
12663 131 12 0 589.8663005022158 626.8420090224173 607.5416962410201 3 4 0
12671 131 15 0 579.3078517733153 615.9547015971167 610.7442368608336 3 4 0
12672 131 6 0 576.4784354547269 615.8603657042539 613.8892769609771 3 4 0
12665 131 14 0 591.5689905441233 621.3892219140251 607.1404552919964 3 4 0
12669 131 12 0 584.846474990231 614.7460912073356 608.4316496815972 3 4 0
12670 131 15 0 582.8146411809824 617.9429495565787 610.2464548944095 3 4 0
12666 131 17 0 592.6949670219138 618.0447928894292 608.7164892996652 3 4 0
12667 131 12 0 590.7279697068243 615.2990815869516 610.0629358883605 3 4 0
12668 131 4 0 587.921674536285 613.5429195638794 607.4529953472136 3 4 0
13354 138 1 0 551.585477365667 641.1681542999098 610.6201657605426 2 2 0
13353 138 13 0 554.2907292839119 639.5262048687332 608.3116609447434 2 2 0
13367 138 17 0 554.1524221379609 649.9586336970813 619.0444146970142 2 2 0
13366 138 12 0 555.4656770997511 650.9434619777479 615.3572181769381 2 2 0
13365 138 2 0 559.0344049099704 650.8813899098518 617.3130895563137 2 2 0
13363 138 18 0 560.2737875437223 649.635403794834 622.5936641772038 2 2 0
13595 141 12 0 560.2554102306574 631.0878064515668 623.4351811398309 -1 5 0
13594 141 18 0 558.2626727383641 632.4507807229371 620.2567655142079 -1 5 0
13593 141 9 0 558.7117185417201 631.08283639668 616.4112363588935 -1 5 0
13357 138 17 0 559.5528281740725 642.7509736592762 614.6395057432279 2 2 0
13358 138 9 0 560.0756956380128 638.9599313172448 616.1430152099191 2 2 0
13359 138 2 0 561.892232235741 641.3791125577051 618.8252847552898 2 2 0
13362 138 18 0 562.659820794207 646.9234745787849 624.3396357357659 2 2 0
13360 138 10 0 564.9565960119833 643.4311010821998 620.327451409487 2 2 0
13596 141 18 0 563.575903815329 631.8815729731049 625.500519763074 -1 5 0
13361 138 12 0 565.366875662519 643.8661086949791 623.9657991807353 2 2 0
13355 138 2 0 552.2200522882903 644.1761926764426 612.9605171874201 2 2 0
13356 138 18 0 555.6680210249285 642.8444283908565 613.4772689622566 2 2 0
13598 141 2 0 560.9912358531749 637.7714858939081 625.5422849052849 -1 5 0
13597 141 9 0 564.0763896067174 635.7257787876905 624.950830502536 -1 5 0
13599 141 12 0 557.1836516504537 639.8359316057298 625.0323385625853 -1 5 0
14768 153 9 0 550.4523094918304 642.9933540345993 624.6218958210652 2 -2 0
14769 153 2 0 554.1103442055231 644.5393750356658 624.4675103385134 2 -2 0
12652 131 6 0 577.7406836989285 630.9704832714053 606.7904348283301 3 4 0
12651 131 18 0 574.7336838760956 633.4321552071501 608.0429293877444 3 4 0
15784 163 2 0 564.2801332706374 563.3270704391289 630.0372620882558 2 3 0
15783 163 9 0 568.2483731627356 562.6272077277096 630.0757098088237 2 3 0
15782 163 17 0 571.5713637256158 563.557696262147 628.5261932609681 2 3 0
15785 163 10 0 562.843044463695 563.9949127473598 626.8895349677467 2 3 0
13381 138 6 0 549.78325526803 560.8871272748046 626.7619391040815 2 3 0
15775 163 15 0 574.1871422393048 549.9997718223091 631.8090916610703 2 3 0
15791 163 12 0 572.8372147480418 568.1142407189092 636.2399158958306 2 3 0
15773 163 12 0 571.5230345976217 555.8700706394784 635.2709581650414 2 3 0
15774 163 15 0 571.4966138666454 552.3728842820416 633.1400960743916 2 3 0
15772 163 4 0 569.5260783204671 554.7894636526743 638.6078779093848 2 3 0
15771 163 12 0 568.9543272324179 551.7748238755555 640.4560369580993 2 3 0
15770 163 17 0 565.1205289514347 551.5302126207699 640.7032454864253 2 3 0
14772 153 12 0 550.2889315881266 549.3337049870154 627.4402719049506 2 -1 0
16230 168 2 0 551.1338049912747 566.9016902120097 642.8699557380339 0 2 0
15776 163 6 0 577.7728783998153 551.6768383039913 632.8191463635378 2 3 0
15778 163 13 0 577.7637728117136 556.8163103968883 627.0695769020846 2 3 0
15777 163 18 0 577.3701444722932 553.8696698999381 629.2571731225576 2 3 0
15793 163 2 0 576.636979066705 562.3446496311834 636.2162139589839 2 3 0
15792 163 17 0 575.5184110779148 565.6944232092742 635.521791667046 2 3 0
15795 163 1 0 577.1243760445018 557.519239386158 637.9247558932027 2 3 0
15796 163 11 0 574.8930241865398 557.0130231396173 640.9904958229563 2 3 0
15794 163 15 0 578.0876484015632 559.2346018197574 634.6647986006848 2 3 0
15797 163 18 0 577.4525226734937 557.5731281003185 643.7290837982309 2 3 0
12696 131 18 0 580.1234662687491 550.6694730623248 644.6275227757596 3 5 0
12697 131 15 0 583.4619237391349 552.6735696416179 645.230927648073 3 5 0
13386 138 12 0 558.4081305078915 570.331560333113 627.9949190428935 2 3 0
15790 163 2 0 569.857089955684 569.5667926136277 634.1156322506052 2 3 0
15788 163 18 0 570.3773858546238 570.0966144402219 627.211830893856 2 3 0
15789 163 12 0 568.9253917919065 571.2429550818421 630.5925300439305 2 3 0
14344 148 12 0 558.2900357266344 575.9758873974072 644.123994658221 -1 0 0
14341 148 11 0 564.6571541675912 581.4487951478176 641.3467793939776 -1 0 0
14340 148 1 0 565.3554280567369 585.0982357815119 643.1436963235151 -1 0 0
14342 148 18 0 564.5943153156803 579.2450106636377 644.5637484763606 -1 0 0
14339 148 15 0 562.598220055496 587.0312533618339 640.9517303740918 -1 0 0
14346 148 15 0 555.924356138779 570.8577192117468 643.3178088326902 -1 0 0
14345 148 18 0 556.6436319979296 573.8927658153788 641.2065199931506 -1 0 0
14336 148 12 0 559.9411736655792 597.3251177465781 644.1408197723969 -1 0 0
14337 148 17 0 561.640161411701 593.8554208002289 643.1999473786228 -1 0 0
14338 148 2 0 562.6092347987314 590.4933608253198 641.6046592910293 -1 0 0
15758 163 2 0 550.3683059013538 625.3279426345922 642.2574940976998 2 2 0
12680 131 2 0 562.0397228967885 623.9383246626634 628.8075555103665 3 4 0