LAMMPS data file via write_data, version 8 Apr 2021, timestep = 11390002

6208 atoms
40 atom types
6144 bonds
1 bond types

548.8454457994151 651.1545542005849 xlo xhi
548.8454457994151 651.1545542005849 ylo yhi
548.8454457994151 1265.009204607604 zlo zhi

Masses

1 131.199997
2 57.0499992
3 128.199997
4 101.099998
5 156.199997
6 71.08000180000001
7 115.099998
8 129.100006
9 163.199997
10 99.0699997
11 113.199997
12 128.100006
13 186.199997
14 147.199997
15 87.08000180000001
16 137.100006
17 114.099998
18 97.1200027
19 103.099998
20 113.199997
21 131.199997
22 57.0499992
23 128.199997
24 101.099998
25 156.199997
26 71.08000180000001
27 115.099998
28 129.100006
29 163.199997
30 99.0699997
31 113.199997
32 128.100006
33 186.199997
34 147.199997
35 87.08000180000001
36 137.100006
37 114.099998
38 97.1200027
39 103.099998
40 113.199997

Bond Coeffs # harmonic

1 9.6 3.81

Atoms # full

13011 135 9 0 617.116662108226 549.2956393180939 637.0159962745112 -1 1 0
13012 135 18 0 619.4864635122599 552.5395344141167 637.9993399550834 -1 1 0
13013 135 12 0 621.5619636958226 553.71904989025 640.8365629935407 -1 1 0
13014 135 18 0 622.3830326108911 550.625171797562 642.837417195969 -1 1 0
13024 135 17 0 614.6589753214776 553.083255666308 650.5861790066748 -1 1 0
14593 151 9 0 629.96371482826 551.0081241653805 652.0058974943287 0 4 0
13025 135 6 0 616.0594754785108 550.1269326536734 648.6509994716458 -1 1 0
14591 151 18 0 634.9955672715598 551.9391655228133 647.296256362677 0 4 0
13047 135 6 0 644.7898618132376 567.8117897788825 652.3880342558828 -1 1 0
14592 151 6 0 632.4250291029672 550.0097854659563 649.1700734063797 0 4 0
13045 135 2 0 640.6477604510623 564.5646154234327 652.5039120062579 -1 1 0
13048 135 13 0 645.2885273434687 571.6516853781344 652.0691573647292 -1 1 0
15315 158 18 0 566.4414810736786 558.5605652304549 672.7507202045489 0 1 0
14562 151 2 0 553.2200805948554 561.783156991062 670.3156350521015 1 4 0
14563 151 9 0 550.5566286221272 562.8522680916511 672.7607433629431 1 4 0
14564 151 18 0 551.8725167080762 566.6171080106736 673.0697710383397 1 4 0
14559 151 17 0 558.1678497330506 562.3198281473441 671.7649260679996 1 4 0
14560 151 12 0 558.1133420809567 558.507300598842 671.2871778332684 1 4 0
15318 158 9 0 562.4406051014498 553.2290091200778 673.5545008044496 0 1 0
14561 151 20 0 554.6783336708281 558.1889238987799 669.8375751030205 1 4 0
15314 158 12 0 569.8675745610765 557.6067313602723 673.5640875784517 0 1 0
15306 158 12 0 587.7035972180598 550.2301683969887 669.9344275759537 0 1 0
15308 158 2 0 583.4435728327406 555.8131975954575 670.7148890617619 0 1 0
15299 158 2 0 589.4727274670743 563.7515332906603 665.9191227702398 0 1 0
13388 139 20 0 581.8214759886454 567.47814905467 668.3535913359948 1 1 0
13387 139 1 0 581.0448318505717 563.8179193893945 666.811227712768 1 1 0
15307 158 17 0 586.6685699824233 553.6027434262134 671.3384621063478 0 1 0
15291 158 6 0 609.1783782059993 564.639841170537 655.7553471874055 0 1 0
15303 158 18 0 594.0258614327631 554.0272506698423 668.0441394231588 0 1 0
15305 158 2 0 591.3018094003843 550.4751321717481 670.403004362158 0 1 0
13397 139 20 0 604.6082668757413 567.9382982965807 670.48235088616 1 1 0
15302 158 18 0 597.0990963092216 556.1631841785523 668.4900230079157 0 1 0
15301 158 12 0 596.1643140567701 559.6408967118647 667.2902259529047 0 1 0
15304 158 12 0 594.3336688566544 551.7387518169638 671.554116454138 0 1 0
15300 158 10 0 592.3551561616827 561.3902634231383 667.145380029078 0 1 0
15298 158 9 0 590.3540619903812 567.5876942046361 664.4865751735699 0 1 0
15297 158 17 0 594.4819807595251 568.1398849405384 664.4606957029886 0 1 0
15296 158 18 0 596.6147142225693 567.5285481885537 661.1399887031445 0 1 0
15295 158 2 0 597.1050184571399 567.9013534829795 657.3590950137601 0 1 0
13398 139 2 0 607.4106909114496 565.6000442531775 669.9512745583369 1 1 0
15292 158 18 0 605.658682868183 563.9914088850343 655.2228297060622 0 1 0
15293 158 13 0 603.4113192071712 566.6689263767308 654.2747590931823 0 1 0
15294 158 1 0 599.4630352588896 566.8673339514871 654.5358074362872 0 1 0
15285 158 17 0 621.3147442468037 567.5026420996143 661.2608338605934 0 1 0
15284 158 14 0 620.9822495224602 563.7572560133233 661.5227690732477 0 1 0
14594 151 2 0 627.0643264872018 551.8686715944021 654.7704651466296 0 4 0
14595 151 1 0 627.5517558728419 550.3718527004729 658.1715117982034 0 4 0
15290 158 15 0 612.7126100304632 566.0239729969516 656.672370307664 0 1 0
13399 139 9 0 610.6446787577681 565.0767008096935 667.7413950118155 1 1 0
15283 158 2 0 618.2450595013977 564.4472890121632 664.271837294171 0 1 0
13400 139 18 0 613.6116918813376 562.6838769214361 666.3196614307718 1 1 0
13430 139 2 0 622.2002874581436 567.605493312278 671.0600532404078 1 1 0
13424 139 13 0 628.5582137563457 566.5714653924308 670.4228689221322 1 1 0
13038 135 10 0 624.2622135722964 555.1491395103924 660.6716258440276 -1 1 0
13039 135 18 0 624.2162606527115 558.0735368814297 662.3217910427106 -1 1 0
13429 139 9 0 621.1975326524492 563.6259038241218 670.2967727737313 1 1 0
13428 139 6 0 622.2553119488786 560.8913563193154 672.2710463141128 1 1 0
13041 135 9 0 629.7128609560691 561.3719704732088 658.5501165603445 -1 1 0
13040 135 6 0 626.9596757679354 560.2673699599201 660.6129067317524 -1 1 0
13402 139 18 0 617.0896700425378 557.056896216683 661.9711814710671 1 1 0
13403 139 9 0 617.6208215245593 553.9065340964219 660.0481946476802 1 1 0
13404 139 2 0 619.685470458335 554.8265224474706 657.0509588600947 1 1 0
13401 139 12 0 615.4359357184186 559.7529201779988 664.3041423288213 1 1 0
13423 139 2 0 628.2653279731248 566.5638754945434 666.5720379228909 1 1 0
13408 139 12 0 624.1788191796211 566.6823136479036 655.7024800582184 1 1 0
13405 139 12 0 620.1872099976322 557.13277144062 654.2425223661455 1 1 0
13406 139 13 0 623.2192765194942 559.4918237683602 655.0731169556736 1 1 0
13407 139 2 0 623.2509810358414 563.3081309764134 654.0613206102717 1 1 0
14609 151 12 0 629.5220750273198 555.0865937950124 664.6408105298359 0 4 0
14610 151 15 0 627.881105670426 557.6832954597384 667.2368321675683 0 4 0
15433 160 12 0 616.1166335971615 557.9741367077697 671.7323998208884 -2 -2 0
15432 160 17 0 619.0542474028069 555.5831536095025 672.5652762727584 -2 -2 0
15282 158 12 0 618.0627391043586 568.024376619263 666.6624405858912 0 1 0
15436 160 9 0 614.4800299964589 565.437537023807 673.6513840530544 -2 -2 0
14612 151 6 0 625.230402615293 553.8048294945876 671.8812793500579 0 4 0
14611 151 15 0 625.3460387227472 555.7277875730542 668.9507373913834 0 4 0
13022 135 9 0 611.4913991872193 552.8736259795456 655.7468683509592 -1 1 0
13036 135 13 0 623.0983278578591 548.9528479412994 664.5954332590245 -1 1 0
15431 160 12 0 618.7775452467009 551.905926359526 672.5943897531661 -2 -2 0
13023 135 2 0 614.4982335994395 554.7088964553362 653.8649599553538 -1 1 0
13037 135 12 0 623.8585482963512 551.945832559663 662.5533126759664 -1 1 0
13021 135 13 0 612.0365835807596 549.2314249011914 657.8554137710892 -1 1 0
13046 135 12 0 644.2143970122731 564.2971074956749 653.6598180384392 -1 1 0
14608 151 4 0 633.0345163784086 555.8498034333672 665.5008357688121 0 4 0
12611 131 1 0 645.1398409439962 557.7401175314066 669.9311034099155 1 -2 0
14606 151 17 0 639.1175414740825 558.7379171806552 664.2261952012454 0 4 0
14605 151 14 0 640.4682886212315 560.5587055960459 661.0162704311311 0 4 0
14603 151 12 0 645.0555504636986 556.6685031828487 656.6497715767779 0 4 0
14604 151 2 0 642.6253917900402 557.6022900068953 659.5821152378332 0 4 0
13042 135 2 0 633.3071608338337 562.1011713385467 657.4541724107135 -1 1 0
13044 135 9 0 638.724218460277 561.2988976962748 653.1100905720942 -1 1 0
13043 135 1 0 636.4066895747582 560.323208652085 655.9806488614543 -1 1 0
13053 135 14 0 637.3224398042754 565.7266201802483 657.8944749043213 -1 1 0
14602 151 12 0 643.7078056891104 553.2183056441667 656.5470734781575 0 4 0
14569 151 12 0 639.9768001254076 562.3650459175569 668.8679809637958 0 4 0
14570 151 13 0 637.093469755816 562.9538123505853 671.0581238294112 0 4 0
13054 135 17 0 636.3930010018042 565.8240345511584 661.3077822766693 -1 1 0
13055 135 12 0 634.8060099487894 567.2135212248036 664.3852982257022 -1 1 0
14607 151 12 0 635.1964315270765 558.9518383999781 664.2940189375948 0 4 0
14573 151 13 0 638.5793480166565 554.3596500630226 669.8461013492355 0 4 0
14571 151 2 0 637.0703992773773 559.573722322672 672.7792482252546 0 4 0
14572 151 12 0 638.7972963718007 556.108553328366 673.629148066738 0 4 0
14599 151 6 0 637.6424456113749 549.3319082236604 656.151472445615 0 4 0
12613 131 17 0 646.8095568490385 552.9106829677692 673.584040007887 1 -2 0
14600 151 13 0 636.3722011712657 553.0239349908055 655.7281519066747 0 4 0
14601 151 17 0 639.6167870036181 554.0656458925548 657.136721344174 0 4 0
12612 131 20 0 647.6078825061708 555.4917781138402 671.0351649563752 1 -2 0
14567 151 9 0 646.5808189126277 565.7507289179362 669.668117214989 0 4 0
14568 151 2 0 642.9656128107803 564.9975592269313 669.9842177263976 0 4 0
14566 151 18 0 649.735313199318 567.5288207350084 670.1047851585444 0 4 0
14614 151 13 0 631.2003467139459 551.7899658949431 673.0502852303302 0 4 0
14574 151 9 0 638.8100322426939 551.2371253038094 667.9931997810293 0 4 0
14565 151 12 0 550.3543768511023 569.5295455304903 670.8987130681355 1 4 0
13389 139 17 0 583.1725053435557 571.0396694248298 668.5862739897622 1 1 0
13390 139 18 0 586.2966821774367 572.3870148438232 666.8128640712737 1 1 0
13396 139 12 0 603.2429472572029 568.936278814016 673.771400580507 1 1 0
13395 139 17 0 599.233553181832 570.1318816308018 673.7225688502543 1 1 0
13393 139 12 0 596.1897068463278 572.0648610762623 668.8007731667649 1 1 0
13392 139 12 0 593.3796315953467 573.4894022564384 666.6163472719068 1 1 0
13394 139 12 0 598.0428736039606 568.9580883605782 670.407501202074 1 1 0
13391 139 10 0 589.8796102255836 573.6984697173068 665.1546856005762 1 1 0
15274 158 1 0 604.4837793307398 571.6170333459255 663.4995298722105 0 1 0
15276 158 2 0 608.5410284388892 573.5895505377596 667.6536512233982 0 1 0
15277 158 12 0 609.9751262835152 576.9181480031862 668.5042964479642 0 1 0
15273 158 2 0 602.5626953799677 571.5093401842652 660.240268495353 0 1 0
15272 158 9 0 603.6673738135098 573.2251646936571 657.4955705768041 0 1 0
15270 158 18 0 601.3096275473346 579.0574056652443 660.9901420507128 0 1 0
15271 158 6 0 603.160198270018 576.2093462776246 659.3298591956676 0 1 0
15275 158 9 0 608.3380809052506 571.0346368529785 664.8971572446085 0 1 0
15268 158 12 0 608.3554719467857 578.717022951121 661.8142658085933 0 1 0
15269 158 10 0 604.96742424395 580.3713142276947 660.8746267449344 0 1 0
15287 158 4 0 617.0219821284189 572.0404141915974 659.0240430205099 0 1 0
15289 158 15 0 612.7246836935103 569.8543540403705 655.5403184404354 0 1 0
15288 158 12 0 613.8007436547987 572.8889925107633 657.2406875559619 0 1 0
15286 158 12 0 620.6267809706745 571.0329475100625 659.5737328427604 0 1 0
13431 139 1 0 622.9561930475414 571.1650204609527 672.0949292223305 1 1 0
15281 158 12 0 616.2545531309638 570.0227091586739 668.9777064585462 0 1 0
15280 158 17 0 615.6775813617357 572.2644735748156 671.6368044635623 0 1 0
15279 158 13 0 612.3121618595659 573.0945663772995 673.0462060365439 0 1 0
13422 139 17 0 626.4846872182093 569.3641633132027 664.6117587235588 1 1 0
15278 158 6 0 610.3769501979415 576.0981050217532 672.640785862818 0 1 0
13411 139 2 0 629.9548941546211 575.2040659267884 659.1728218060763 1 1 0
13421 139 18 0 626.7899488963275 573.2766260091256 666.2596468891596 1 1 0
15267 158 13 0 611.2908711185893 580.8833580323358 663.0313833744327 0 1 0
13414 139 12 0 621.0561938382046 577.3861159800987 660.5592228961765 1 1 0
13413 139 6 0 624.7420767016919 577.4692863886546 660.9146541887242 1 1 0
13415 139 12 0 619.6371638740702 580.4161257093492 661.9986478028304 1 1 0
15266 158 2 0 613.8984073404803 580.3906259242248 665.6526025511682 0 1 0
13416 139 20 0 621.0945317493876 583.0252365600057 664.5504372234475 1 1 0
13420 139 1 0 624.3865911473167 576.2455473658193 667.232484876066 1 1 0
13419 139 9 0 626.89203371086 579.3311403311968 666.749832104782 1 1 0
13418 139 12 0 626.0274374596188 583.023325442417 667.2315444210353 1 1 0
13417 139 2 0 622.1958673737101 582.8378870391074 668.2236297077138 1 1 0
13412 139 17 0 627.7830001285064 578.7126274214788 659.2288527064633 1 1 0
15265 158 17 0 614.4054999449315 581.9184786327863 669.0628337491087 0 1 0
13409 139 13 0 626.8200570794515 568.8964249456562 656.8179770699037 1 1 0
13410 139 9 0 628.1220409127153 572.1690131734814 657.7823970933983 1 1 0
13433 139 2 0 625.7500415924447 575.4894573110591 673.1493884900506 1 1 0
15264 158 18 0 615.5486378797467 579.5965519853241 671.4410324934993 0 1 0
13052 135 2 0 638.0732488851435 569.2755263380154 657.2959157242649 -1 1 0
13051 135 12 0 636.0874379856253 571.9723594475751 655.1595722500875 -1 1 0
13049 135 17 0 642.3212589644066 573.9932428228693 653.1905435349632 -1 1 0
13050 135 12 0 639.0398016037647 575.162248503225 655.0299626266893 -1 1 0
13060 135 6 0 637.3659477976664 580.2681335817537 669.1781206367926 -1 1 0
13056 135 4 0 637.1815560828297 568.647464727275 666.6469755369744 -1 1 0
13057 135 12 0 638.370416625195 571.7305886099149 668.4669629949432 -1 1 0
13059 135 15 0 635.2520096437701 576.9484324765568 669.9174021132736 -1 1 0
13058 135 15 0 635.4344456183502 573.904866588071 667.479723149123 -1 1 0
13061 135 18 0 639.4710361321094 578.5642725758973 672.1717377898015 -1 1 0
13435 139 6 0 632.240352049689 574.9178739132013 673.4214715752694 1 1 0
14642 151 6 0 645.7441263981866 574.089101078871 673.5618237942925 0 4 0
14641 151 10 0 648.5308654461959 576.5637113471851 673.3109754413724 0 4 0
13083 135 12 0 619.6993845504562 599.2005494055372 669.6157111669689 -1 1 0
13084 135 18 0 618.0209271061557 596.3312738594751 671.5560032761551 -1 1 0
13082 135 17 0 622.8363959195335 599.80417934702 672.2965571911843 -1 1 0
13081 135 18 0 626.5460975602356 601.4853846294664 672.4287562919837 -1 1 0
13069 135 10 0 632.8556736777775 597.1007711153283 671.97514175852 -1 1 0
13068 135 2 0 632.9237090695424 594.0361346279278 673.7604316145655 -1 1 0
14553 151 17 0 563.8210740250743 560.1647154065503 686.6170753407066 1 4 0
14551 151 1 0 565.666101905102 559.6202207142459 693.9114557037518 1 4 0
14554 151 18 0 562.8437132544101 563.7594494364477 685.825676958519 1 4 0
14555 151 10 0 564.52870117713 564.7067962123136 682.3584618913144 1 4 0
14557 151 12 0 562.8124349195232 565.6083196809316 676.4465296350528 1 4 0
14558 151 12 0 560.1009083015772 563.9071341582418 674.3495372835033 1 4 0
14552 151 20 0 565.8042550740589 560.06189909386 690.1523234437697 1 4 0
14556 151 12 0 562.3938131738222 566.4015046645088 680.0709099864699 1 4 0
15326 158 12 0 558.0616285476925 551.5393369071771 686.2062348787797 0 1 0
15317 158 2 0 562.4632860290386 556.3685913120862 675.5341035748262 0 1 0
15319 158 5 0.75 560.8369120269575 550.9552267551376 676.1296405046928 0 1 0
15316 158 15 0 564.694556965222 559.4915387963932 675.8531895211394 0 1 0
15325 158 4 0 554.7247053485889 553.1438437869562 685.3933348548934 0 1 0
14630 151 15 0 552.5836798821533 566.164401994265 692.3083217218526 1 4 0
15323 158 9 0 555.8825069554183 557.9207722004201 680.403126526039 0 1 0
15321 158 6 0 559.142072752525 552.827327770685 681.4037420990848 0 1 0
15324 158 8 -0.75 554.8271480258818 556.5534545760709 683.8685284939276 0 1 0
15322 158 2 0 557.3064474253349 555.0044268292048 678.3612357744906 0 1 0
15320 158 10 0 560.4031290644446 550.0334718840508 679.6048979620118 0 1 0
12624 131 18 0 549.3236575523133 550.2911403233708 686.7745651912985 2 -2 0
15313 158 17 0 571.3239103263244 555.5246139561642 675.8026387537195 0 1 0
15310 158 1 0 580.9083638875138 552.7426751742746 674.7714918108102 0 1 0
15309 158 15 0 581.557146967148 556.3314748843211 674.3312285346241 0 1 0
15311 158 11 0 577.1282047593847 552.3076400139828 676.177857985613 0 1 0
15312 158 18 0 575.1225209990948 555.5080563069025 675.9879693676515 0 1 0
15986 165 17 0 585.018770456172 556.2440357499081 694.4096532226552 -2 4 0
15985 165 12 0 584.0500990827485 554.8337451432112 690.9897409073204 -2 4 0
15983 165 12 0 584.8031082960131 551.2042405358691 685.9975080378562 -2 4 0
15984 165 2 0 582.792413918066 554.2963705381002 687.7159340508128 -2 4 0
12997 134 4 0 596.029383038339 554.9953345433804 678.96340817292 1 1 0
12996 134 8 -0.75 598.1494713680372 552.0484508201839 679.3207576877193 1 1 0
12995 134 9 0 599.4413474201543 551.8373217391284 682.929048824628 1 1 0
12994 134 2 0 599.3223649145939 555.0808667185419 685.3485866753971 1 1 0
12989 134 2 0 589.8271518625636 567.3811618702666 688.5150351092818 1 1 0
12991 134 5 0.75 591.9824770284156 561.6410688054636 689.0403209436453 1 1 0
12990 134 9 0 590.9975332720041 564.8765553030082 691.0652326556592 1 1 0
12992 134 10 0 595.3426252358915 560.4632110879687 687.4039861743563 1 1 0
12993 134 6 0 596.7607012774529 557.4565266074433 686.4275992799509 1 1 0
12998 134 12 0 595.8620514745362 556.7644512488407 675.2088041451799 1 1 0
15424 160 1 0 610.6837075523465 553.9138851656988 688.8538633931568 -2 -2 0
15434 160 20 0 613.3611899081435 558.422744798625 674.5855288175408 -2 -2 0
15438 160 12 0 613.4662401860325 566.8961030922816 680.4997271053363 -2 -2 0
15437 160 18 0 613.2006591751506 567.1500094755471 677.008352738293 -2 -2 0
15435 160 2 0 612.7750820169136 562.0860401947672 674.0089816318985 -2 -2 0
15426 160 17 0 613.4395648100797 554.1731841749591 682.1081988790415 -2 -2 0
15240 158 20 0 612.9211412266043 566.2828850227112 690.3374870380359 0 1 0
15239 158 12 0 612.2245656896139 564.9213875746747 687.3129032025987 0 1 0
13425 139 12 0 628.5305602312322 565.3017431928715 674.0296984961374 1 1 0
13426 139 10 0 628.5070157683592 561.4100406754328 674.6960418935901 1 1 0
13427 139 18 0 625.2096820072893 559.8367503667816 674.6387742988892 1 1 0
15360 159 1 0 619.833582585723 554.3925571698015 688.486897041743 -1 3 0
15359 159 9 0 619.7455542014003 557.5540526747855 686.4097563680524 -1 3 0
15444 160 2 0 628.738243941033 568.6888254819444 681.5934273903529 -2 -2 0
15358 159 12 0 622.5041840147641 557.8733652847725 683.614527296962 -1 3 0
15357 159 2 0 624.6432445103369 555.372779225201 685.600885885238 -1 3 0
15237 158 12 0 618.6906920063759 566.0587982713594 687.6658918878537 0 1 0
15236 158 12 0 621.3678294043876 568.4476831663219 689.1393081420223 0 1 0
15238 158 17 0 615.35661319548 565.1588973905282 685.7146125334323 0 1 0
15361 159 18 0 618.6697400413118 554.7124080116921 692.0138851483672 -1 3 0
15356 159 20 0 627.7077078455726 553.966770856779 683.9339140116517 -1 3 0
15355 159 12 0 629.1670449771326 552.2506266995134 686.8926539648726 -1 3 0
15352 159 17 0 626.6586397486697 560.2406044828795 688.1695722842948 -1 3 0
15353 159 6 0 627.7689146911105 557.1261715873623 689.902527928704 -1 3 0
15351 159 2 0 627.5606684301988 560.9180904197569 684.2608068512611 -1 3 0
14613 151 18 0 627.8826237656199 553.2773550938227 674.6394628597747 0 4 0
15350 159 9 0 629.8177451199748 562.2042128434643 681.7414756533079 -1 3 0
15241 158 2 0 614.4734976026978 562.6819460146768 691.5790496502148 0 1 0
15242 158 9 0 617.7963452250476 561.3760356255427 693.212505116003 0 1 0
15425 160 20 0 612.8066148429647 554.6596770917712 685.6283636812711 -2 -2 0
15428 160 10 0 614.2009880479534 550.487475185428 677.08644320821 -2 -2 0
15427 160 18 0 615.6255806064719 553.428485917052 679.0111954590018 -2 -2 0
15430 160 12 0 619.79770094129 550.024226900267 675.7518593299146 -2 -2 0
14622 151 12 0 644.335840513578 567.1231155260874 688.8767114667048 0 4 0
14621 151 10 0 642.1180260224111 564.7779561498429 686.8147691146003 0 4 0
14623 151 18 0 642.9481167251233 566.6980682996056 692.5722452582446 0 4 0
14624 151 18 0 644.5999169831548 563.2191625456871 693.8463558908335 0 4 0
15354 159 12 0 631.1103063860762 555.2762279340836 688.8238717384429 -1 3 0
14620 151 2 0 639.432491311625 562.3917620168153 686.7101218682415 0 4 0
14616 151 2 0 632.5216640583868 554.2266972895134 679.8132394761088 0 4 0
14615 151 1 0 633.0809037653263 552.9335331856229 676.3222178083598 0 4 0
15448 160 2 0 635.9709407496817 563.4550579132928 689.947022441672 -2 -2 0
15447 160 9 0 632.3676188653976 563.4519142430837 688.5783587411328 -2 -2 0
12616 131 12 0 647.5554712644957 556.9857878375346 680.9255069056518 1 -2 0
12615 131 10 0 645.7371120903691 554.5013405621467 678.8336295918391 1 -2 0
12617 131 12 0 646.9821744718936 558.2941270855753 684.3663632041764 1 -2 0
15349 159 13 0 632.1300886697735 564.1256954984684 679.5502393328842 -1 3 0
15449 160 17 0 638.5548509699713 563.3687299640461 692.9095252428323 -2 -2 0
15450 160 6 0 636.6249022939535 560.209051559582 692.9682467725356 -2 -2 0
12614 131 18 0 647.676859005263 551.7900768381464 677.1429455885766 1 -2 0
12618 131 12 0 643.1246507996153 557.8728060939528 684.7803890497751 1 -2 0
14619 151 9 0 636.9286780791749 561.2704800434809 684.1686970302817 0 4 0
14618 151 17 0 636.6006338605517 558.7140664868892 681.7739966624296 0 4 0
14617 151 18 0 633.6956393529948 557.7445992510163 679.7104983390107 0 4 0
15348 159 12 0 635.4463685877861 564.1314259280553 678.181618429768 -1 3 0
12619 131 17 0 641.3030610042858 557.2267394776417 687.978696857343 1 -2 0
12620 131 12 0 643.1906228769708 556.7804945197082 691.4359154861795 1 -2 0
15446 160 13 0 632.0336533063469 566.4559073442939 686.4528441860188 -2 -2 0
15347 159 2 0 637.032866453133 567.4281579131509 676.039586498611 -1 3 0
15346 159 13 0 640.8380663213317 567.2873763174829 676.2271886842658 -1 3 0
15344 159 2 0 647.6750349782892 568.1272036309314 677.141904823193 -1 3 0
15456 160 9 0 639.9396971327344 549.855382484682 694.0320615200175 -2 -2 0
12621 131 20 0 647.1030020315536 557.3463071036246 691.2466709221143 1 -2 0
12623 131 9 0 650.9437244500383 551.4215080457786 690.7097700229136 1 -2 0
12622 131 2 0 649.9001977928535 555.1185452982107 689.7518461139839 1 -2 0
14635 151 12 0 551.1709167388777 577.3602735755944 682.4433767038689 1 4 0
15340 159 18 0 557.3982497187092 570.9636618487342 680.2374061413177 0 3 0
15338 159 2 0 562.1949726803198 572.1258934420492 683.89878490856 0 3 0
15337 159 20 0 560.0719795075778 569.4642962756243 685.7041146125043 0 3 0
15339 159 9 0 560.0699488911666 573.26241821478 680.5513816454678 0 3 0
15336 159 12 0 561.2903481229745 569.3264855832475 689.3267909450727 0 3 0
15334 159 12 0 566.9248419507502 572.4166250310694 693.4105537452263 0 3 0
15335 159 17 0 564.5333716047072 570.1108847297497 691.717536288652 0 3 0
12959 134 4 0 552.9755774951228 587.1894212203186 693.5114110668499 1 1 0
15341 159 12 0 554.7758625018055 570.9967026113171 677.5729214256073 0 3 0
15342 159 18 0 551.3371658010075 571.9876389869579 677.7504171186422 0 3 0
12961 134 15 0 554.1275956992963 581.5516382372078 692.9774426747408 1 1 0
14636 151 18 0 553.5303380721737 580.1631117198426 683.1130367208025 1 4 0
14637 151 15 0 552.9584751065086 581.8817791204008 679.8709960865875 1 4 0
14638 151 2 0 549.5043128344817 583.574662260844 678.5352418714253 1 4 0
14631 151 1 0 551.7188949705201 569.4285166960478 690.838846573315 1 4 0
14632 151 11 0 550.8339731556725 572.8615213045274 688.7997808686747 1 4 0
14633 151 18 0 549.3647341922235 575.4748045201147 687.1523835237269 1 4 0
12962 134 15 0 557.0863403790811 579.0923095858371 693.0701761432498 1 1 0
12963 134 6 0 559.1638161776071 582.4761031952349 693.4798915844979 1 1 0
12988 134 15 0 588.2085400321457 570.9774816720302 689.1838251558961 1 1 0
12986 134 12 0 587.0151469667032 576.3107613752813 685.4426081687305 1 1 0
12984 134 18 0 581.7513906099912 577.6714943404621 689.386837186715 1 1 0
12985 134 17 0 584.4775386870892 578.5927170396993 686.9466925625286 1 1 0
12983 134 11 0 577.8458936329021 578.718046491916 690.15854944014 1 1 0
12982 134 1 0 574.8442070353947 581.0730105155963 689.8715610120246 1 1 0
12987 134 18 0 587.5272566374781 572.2210921102385 685.8589918614674 1 1 0
12981 134 15 0 576.8755267882232 584.271249274874 690.8098114626774 1 1 0
12980 134 2 0 578.8018602727527 583.2713782828633 693.8829451550946 1 1 0
15439 160 18 0 613.6485561680363 570.6817612303294 681.2597390674096 -2 -2 0
15441 160 2 0 620.8188211917563 571.6112950456477 684.0633794405621 -2 -2 0
15440 160 9 0 617.5856690698873 571.5933757446055 681.7339387168621 -2 -2 0
15442 160 12 0 624.4782508253962 571.1741296046396 684.2296202150258 -2 -2 0
15443 160 13 0 626.0869691554748 571.2243244305824 680.8783565619656 -2 -2 0
15256 158 6 0 616.3171332568307 574.2613048521449 692.6126296178186 0 1 0
15234 158 10 0 625.9145423315439 571.5353532876642 693.1899344591847 0 1 0
15235 158 12 0 622.5336292925853 570.2793911722716 692.4540365372541 0 1 0
15233 158 18 0 627.5037789684739 572.9290191580943 689.7873760631722 0 1 0
13432 139 9 0 622.332322523408 573.7976983359835 674.5061168530892 1 1 0
13441 139 14 0 627.2820952352665 577.1238953684574 684.8616593946439 1 1 0
13442 139 17 0 628.292097526364 580.7027976190436 682.7451986419637 1 1 0
15257 158 12 0 614.7807006439871 571.998645960623 690.2290363091192 0 1 0
15258 158 12 0 613.127147188994 573.8379221854404 687.2650104136028 0 1 0
15263 158 1 0 615.4311652997139 578.7633918255952 674.9382530244922 0 1 0
15259 158 20 0 611.5067750778653 576.5824794937396 685.4856713397313 0 1 0
15261 158 12 0 617.1518741339527 577.8943516572997 682.1031393876235 0 1 0
15260 158 2 0 614.7200760393368 578.8076071456588 684.7264968729041 0 1 0
15262 158 9 0 616.1816124609813 577.9041776041546 678.6371691308575 0 1 0
13482 139 4 0 620.0740382794395 579.0610266745414 691.2686845007316 1 1 0
13481 139 8 -0.75 617.3162276092872 581.5011557146047 691.0507679707624 1 1 0
13480 139 9 0 613.4934901623266 582.2154871482788 689.598841332291 1 1 0
13443 139 12 0 629.7116776799627 583.233083912797 685.5174461834825 1 1 0
13434 139 12 0 628.924766291088 574.8992924958467 674.877018126661 1 1 0
13090 135 6 0 628.5328995196344 588.0162169005778 680.7592718670479 -1 1 0
13091 135 2 0 625.0470928183742 588.0907637503927 681.9554830818435 -1 1 0
13479 139 2 0 611.1249425187966 584.7862339966614 689.229419841481 1 1 0
13483 139 12 0 623.2933600972214 577.9264230768247 692.8907503884889 1 1 0
13478 139 6 0 610.4521045357586 588.3596385627817 689.1434232032464 1 1 0
13062 135 13 0 640.27810339521 580.577881339977 675.4856969419656 -1 1 0
13436 139 13 0 635.5887502057501 573.22969974525 674.4620495510518 1 1 0
13437 139 17 0 635.6252451243923 575.9164319061117 677.4223199540028 1 1 0
14634 151 17 0 650.3971550384648 575.2854461342805 683.5396064283401 0 4 0
15231 158 20 0 633.8593339392752 572.3326861423221 690.8632124329346 0 1 0
15232 158 17 0 631.0319870413622 574.9496294635378 689.8426726829366 0 1 0
15230 158 1 0 637.5997126469964 573.4765376259576 690.9074713831778 0 1 0
13444 139 4 0 631.92477276073 586.3848475983867 684.5385317431518 1 1 0
13063 135 1 0 636.9338090531711 581.9543998105758 676.402138770623 -1 1 0
15445 160 12 0 631.7919930408426 569.5077626891025 684.0430642452836 -2 -2 0
14639 151 9 0 648.742992998158 580.9898446698583 678.2659750403931 0 4 0
14640 151 5 0.75 649.916829667293 578.183548543273 676.1760238324238 0 4 0
13439 139 12 0 634.5766234846109 576.6192732383786 683.6903699472216 1 1 0
13440 139 2 0 630.9165544599317 575.8265724177434 684.4277505219344 1 1 0
15345 159 12 0 644.2179484810329 569.1197478196161 675.9099978424042 -1 3 0
14643 151 2 0 644.4512933609917 575.8802621943204 677.1780892796052 0 4 0
15343 159 9 0 649.9896656409433 571.0722129942013 677.76266112713 -1 3 0
13438 139 12 0 634.5881164739557 577.9804131072705 680.4759490809204 1 1 0
14647 151 12 0 645.3966466232026 585.189030183588 684.0216417736885 0 4 0
14646 151 4 0 644.9060194210533 581.4827332403531 682.9653484569056 0 4 0
14644 151 9 0 643.9277017365492 574.2749102774079 680.7278245547575 0 4 0
14645 151 8 -0.75 644.2667108612073 578.0445219678635 681.5327184944039 0 4 0
13445 139 12 0 634.0390680461381 588.0798480756977 682.0459292234136 1 1 0
13065 135 18 0 631.7568288999823 585.7505717186895 676.9989462185432 -1 1 0
13064 135 2 0 634.9602381549763 584.9524079472712 675.0527045935945 -1 1 0
13446 139 15 0 637.7910046146071 588.1764174075405 682.1539808547203 1 1 0
12940 134 12 0 645.7235923870959 582.9556983808717 693.4523382189176 0 1 0
12941 134 10 0 647.9829133545826 585.3861883541015 691.6050887571362 0 1 0
17067 176 6 0 557.0504264453076 606.9717737714915 681.1871613189156 0 -1 0
12958 134 12 0 555.9173826209861 589.716549483152 693.439158794946 1 1 0
12957 134 17 0 556.5198175868445 593.2006983595749 691.5920445292207 1 1 0
12955 134 2 0 560.6920642851683 595.6328025180593 692.9439784422328 1 1 0
12956 134 14 0 557.8117350678324 596.541181134109 690.5065772987899 1 1 0
17064 176 9 0 561.482016336435 603.6449572870055 691.533554035755 0 -1 0
17065 176 5 0.75 560.5728504178668 604.2587331523306 687.3367536770558 0 -1 0
17066 176 10 0 558.3309443982364 605.997526044419 684.6458723721469 0 -1 0
13454 139 17 0 550.9046336289856 602.2948656371944 685.6862629546648 2 1 0
13455 139 9 0 552.4414619128977 601.4626880749169 688.9541506109474 2 1 0
13456 139 2 0 551.6606784878321 597.7250471808653 688.4353535152649 2 1 0
13457 139 10 0 549.5563791670972 595.7828866943522 686.2635701473203 2 1 0
17063 176 2 0 564.5601720638714 602.2204320601924 693.6466360279454 0 -1 0
13475 139 9 0 608.9813748888041 595.3031552349909 691.4178231872446 1 1 0
13476 139 5 0.75 608.638071606362 591.9044609548646 693.6523662187419 1 1 0
13078 135 15 0 629.8419678941058 607.8236453421463 679.6027328610955 -1 1 0
13086 135 2 0 622.0666482356812 595.962977741224 675.3874952728794 -1 1 0
13085 135 15 0 618.8049358426892 597.6875984963154 675.5241321738123 -1 1 0
13087 135 9 0 624.7924355474549 594.2618836300927 676.9437172115656 -1 1 0
13088 135 5 0.75 625.6057725173729 594.4845918140046 680.5845227594988 -1 1 0
13092 135 9 0 623.1061555756671 589.5574911268383 684.6786906936736 -1 1 0