Configuration for FUS variant

97 atoms
40 atom types

96 bonds
1 bond types

0.0 300.0 xlo xhi
0.0 300.0 ylo yhi
0.0 300.0 zlo zhi

 Masses
 
           1   131.199997    
           2   57.0499992    
           3   128.199997    
           4   101.099998    
           5   156.199997    
           6   71.0800018    
           7   115.099998    
           8   129.100006    
           9   163.199997    
          10   99.0699997    
          11   113.199997    
          12   128.100006    
          13   186.199997    
          14   147.199997    
          15   87.0800018    
          16   137.100006    
          17   114.099998    
          18   97.1200027    
          19   103.099998    
          20   113.199997    
          21   131.199997    
          22    57.0499992   
          23    128.199997   
          24    101.099998   
          25    156.199997   
          26    71.0800018   
          27    115.099998   
          28    129.100006   
          29    163.199997   
          30    99.0699997   
          31    113.199997   
          32    128.100006   
          33    186.199997   
          34    147.199997   
          35    87.0800018   
          36    137.100006   
          37    114.099998   
          38    97.1200027   
          39    103.099998   
          40    113.199997   

Atoms

1 1 1 0 0.230             0.318             -0.502         
2 1 20 0 2.837             -1.828            1.171          
3 1 17 0 6.581             -1.462            1.385          
4 1 18 0 9.169             -3.508            3.205          
5 1 10 0 12.927            -3.251            3.277          
6 1 12 0 15.505            -5.180            5.233          
7 1 12 0 19.270            -5.046            5.175          
8 1 12 0 21.845            -6.846            7.254          
9 1 17 0 25.609            -6.848            7.080          
10 1 12 0 28.189            -8.506            9.269          
11 1 20 0 31.943            -8.655            8.993          
12 1 2 0 34.536            -10.161           11.275         
13 1 9 0 38.274            -10.467           10.915         
14 1 18 0 40.888            -11.812           13.272         
15 1 12 0 44.602            -12.282           12.845         
16 1 18 0 47.243            -13.460           15.260         
17 1 9 0 50.925            -14.100           14.785         
18 1 2 0 53.601            -15.106           17.239         
19 1 12 0 57.246            -15.919           16.734         
20 1 13 0 59.963            -16.751           19.208         
21 1 2 0 63.563            -17.737           18.694         
22 1 12 0 66.328            -18.398           21.167         
23 1 13 0 69.878            -19.555           20.663         
24 1 9 0 72.695            -20.045           23.116         
25 1 2 0 76.190            -21.371           22.642         
26 1 17 0 79.064            -21.696           25.056         
27 1 6 0 82.500            -23.183           24.630         
28 1 12 0 85.436            -23.350           26.986         
29 1 12 0 88.809            -24.991           26.628         
30 1 20 0 91.808            -25.009           28.907         
31 1 2 0 95.116            -26.793           28.634         
32 1 12 0 98.182            -26.674           30.820         
33 1 9 0 101.422           -28.590           30.649         
34 1 1 0 104.557           -28.346           32.725         
35 1 18 0 107.728           -30.379           32.670         
36 1 17 0 110.931           -30.025           34.623         
37 1 2 0 114.035           -32.160           34.699         
38 1 13 0 117.305           -31.712           36.515         
39 1 12 0 120.341           -33.933           36.733         
40 1 10 0 123.678           -33.409           38.402         
41 1 18 0 126.649           -35.696           38.772         
42 1 6 0 130.050           -35.114           40.284         
43 1 9 0 132.958           -37.451           40.815         
44 1 2 0 136.421           -36.829           42.163         
45 1 1 0 139.269           -39.195           42.860         
46 1 9 0 142.790           -38.554           44.040         
47 1 2 0 145.582           -40.930           44.907         
48 1 12 0 149.156           -40.289           45.916         
49 1 6 0 151.898           -42.654           46.955         
50 1 13 0 155.519           -42.033           47.792         
51 1 17 0 158.217           -44.369           49.002         
52 1 12 0 161.879           -43.788           49.669         
53 1 12 0 164.539           -46.074           51.047         
54 1 2 0 168.236           -45.552           51.549         
55 1 14 0 170.864           -47.770           53.089         
56 1 17 0 174.590           -47.325           53.432         
57 1 12 0 177.193           -49.457           55.127         
58 1 4 0 180.940           -49.106           55.319         
59 1 12 0 183.526           -51.136           57.160         
60 1 15 0 187.286           -50.895           57.212         
61 1 15 0 189.862           -52.807           59.187         
62 1 6 0 193.628           -52.692           59.111         
63 1 18 0 196.203           -54.472           61.208         
64 1 13 0 199.966           -54.494           61.018         
65 1 1 0 202.547           -56.130           63.221         
66 1 2 0 206.300           -56.302           62.932         
67 1 18 0 208.896           -57.784           65.226         
68 1 17 0 212.631           -58.114           64.855         
69 1 9 0 215.248           -59.434           67.222         
70 1 2 0 218.958           -59.929           66.786         
71 1 10 0 221.604           -61.082           69.209         
72 1 12 0 225.281           -61.747           68.728         
73 1 18 0 227.963           -62.727           71.186         
74 1 18 0 231.601           -63.565           70.678         
75 1 12 0 234.325           -64.373           73.153         
76 1 2 0 237.918           -65.384           72.639         
77 1 12 0 240.690           -66.019           75.111         
78 1 17 0 244.232           -67.201           74.610         
79 1 2 0 247.058           -67.666           77.058         
80 1 15 0 250.544           -69.016           76.590         
81 1 1 0 253.428           -69.316           78.996         
82 1 11 0 256.854           -70.827           78.580         
83 1 18 0 259.799           -70.971           80.925         
84 1 17 0 263.163           -72.633           80.578         
85 1 12 0 266.173           -72.631           82.845         
86 1 18 0 269.470           -74.435           82.586         
87 1 15 0 272.547           -74.296           84.756         
88 1 2 0 275.777           -76.229           84.601         
89 1 9 0 278.921           -75.968           86.660         
90 1 5 0.75 282.083           -78.017           86.624         
91 1 10 0 285.295           -77.648           88.557         
92 1 6 0 288.389           -79.797           88.653         
93 1 2 0 291.669           -79.337           90.449    
94 1 9 0 294.696           -81.568           90.688    
95 1 8 0.75 298.043           -81.034           92.335    
96 1 4 0 301.004           -83.330           92.728    
97 1 12 0 304.415           -82.741           94.216    

Bonds

1 1 1 2
2 1 2 3
3 1 3 4
4 1 4 5
5 1 5 6
6 1 6 7
7 1 7 8
8 1 8 9
9 1 9 10
10 1 10 11
11 1 11 12
12 1 12 13
13 1 13 14
14 1 14 15
15 1 15 16
16 1 16 17
17 1 17 18
18 1 18 19
19 1 19 20
20 1 20 21
21 1 21 22
22 1 22 23
23 1 23 24
24 1 24 25
25 1 25 26
26 1 26 27
27 1 27 28
28 1 28 29
29 1 29 30
30 1 30 31
31 1 31 32
32 1 32 33
33 1 33 34
34 1 34 35
35 1 35 36
36 1 36 37
37 1 37 38
38 1 38 39
39 1 39 40
40 1 40 41
41 1 41 42
42 1 42 43
43 1 43 44
44 1 44 45
45 1 45 46
46 1 46 47
47 1 47 48
48 1 48 49
49 1 49 50
50 1 50 51
51 1 51 52
52 1 52 53
53 1 53 54
54 1 54 55
55 1 55 56
56 1 56 57
57 1 57 58
58 1 58 59
59 1 59 60
60 1 60 61
61 1 61 62
62 1 62 63
63 1 63 64
64 1 64 65
65 1 65 66
66 1 66 67
67 1 67 68
68 1 68 69
69 1 69 70
70 1 70 71
71 1 71 72
72 1 72 73
73 1 73 74
74 1 74 75
75 1 75 76
76 1 76 77
77 1 77 78
78 1 78 79
79 1 79 80
80 1 80 81
81 1 81 82
82 1 82 83
83 1 83 84
84 1 84 85
85 1 85 86
86 1 86 87
87 1 87 88
88 1 88 89
89 1 89 90
90 1 90 91
91 1 91 92
92 1 92 93
93 1 93 94
94 1 94 95
95 1 95 96
96 1 96 97
